
     Program PHONON v.7.1 starts on 31May2023 at 10: 2:54 

     This program is part of the open-source Quantum ESPRESSO suite
     for quantum simulation of materials; please cite
         "P. Giannozzi et al., J. Phys.:Condens. Matter 21 395502 (2009);
         "P. Giannozzi et al., J. Phys.:Condens. Matter 29 465901 (2017);
         "P. Giannozzi et al., J. Chem. Phys. 152 154105 (2020);
          URL http://www.quantum-espresso.org", 
     in publications or presentations arising from this work. More details at
     http://www.quantum-espresso.org/quote

     Parallel version (MPI), running on    24 processors

     MPI processes distributed on     1 nodes
     R & G space division:  proc/nbgrp/npool/nimage =      24
     163666 MiB available memory on the printing compute node when the environment starts
 
     Waiting for input...
     Reading input from standard input
      Title line not specified: using 'default'.

     Reading xml data from directory:

     ./pwscf.save/
     file O.pbe-n-kjpaw_psl.0.1.UPF: wavefunction(s)  2P renormalized

     IMPORTANT: XC functional enforced from input :
     Exchange-correlation= PBE
                           (   1   4   3   4   0   0   0)
     Any further DFT definition will be discarded
     Please, verify this is what you really want

 
     Parallelization info
     --------------------
     sticks:   dense  smooth     PW     G-vecs:    dense   smooth      PW
     Min        2273    1136    284               399495   141218   17654
     Max        2274    1137    285               399500   141221   17656
     Sum       54553   27281   6817              9587919  3389267  423701
 
     Using Slab Decomposition
 

     negative rho (up, down):  1.225E-03 1.225E-03
     Reading collected, re-writing distributed wavefunctions

     Calculation of q =    0.0000000   0.0000000   0.0000000

     default                                                                    

     bravais-lattice index     =            0
     lattice parameter (alat)  =      37.7945  a.u.
     unit-cell volume          =   53986.6760 (a.u.)^3
     number of atoms/cell      =            3
     number of atomic types    =            2
     kinetic-energy cut-off    =      60.0000  Ry
     charge density cut-off    =     480.0000  Ry
     convergence threshold     =      1.0E-12
     beta                      =       0.7000
     number of iterations used =            4
     Exchange-correlation= PBE
                           (   1   4   3   4   0   0   0)


     celldm(1)=   37.79452  celldm(2)=    0.00000  celldm(3)=    0.00000
     celldm(4)=    0.00000  celldm(5)=    0.00000  celldm(6)=    0.00000

     crystal axes: (cart. coord. in units of alat)
               a(1) = (  1.0000  0.0000  0.0000 )  
               a(2) = (  0.0000  1.0000  0.0000 )  
               a(3) = (  0.0000  0.0000  1.0000 )  

     reciprocal axes: (cart. coord. in units 2 pi/alat)
               b(1) = (  1.0000  0.0000  0.0000 )  
               b(2) = (  0.0000  1.0000  0.0000 )  
               b(3) = (  0.0000  0.0000  1.0000 )  


     Atoms inside the unit cell: 

     Cartesian axes

     site n.  atom      mass           positions (alat units)
        1     O   15.9990   tau(    1) = (    0.50000    0.50000    0.51492  )
        2     H    1.0080   tau(    2) = (    0.50000    0.53825    0.48509  )
        3     H    1.0080   tau(    3) = (    0.50000    0.46175    0.48509  )

     Computing dynamical matrix for 
                    q = (   0.0000000   0.0000000   0.0000000 )
 
      2 Sym.Ops. (with q -> -q+G )


     G cutoff =17367.5767  ( 399497 G-vectors)     FFT grid: (270,270,270)
     G cutoff = 8683.7884  ( 141218 G-vectors)  smooth grid: (192,192,192)

     number of k points=     2  Gaussian smearing, width (Ry)=  0.0020
                       cart. coord. in units 2pi/alat
        k(    1) = (   0.0000000   0.0000000   0.0000000), wk =   1.0000000
        k(    2) = (   0.0000000   0.0000000   0.0000000), wk =   1.0000000

     PseudoPot. # 1 for O  read from file:
     /home/cjw/pseudopotential/SSSP_1.1.2_PBE_efficiency/O.pbe-n-kjpaw_psl.0.1.UPF
     MD5 check sum: 0234752ac141de4415c5fc33072bef88
     Pseudo is Projector augmented-wave + core cor, Zval =  6.0
     Generated using "atomic" code by A. Dal Corso  v.5.0.99 svn rev. 10869
     Shape of augmentation charge: BESSEL
     Using radial grid of 1095 points,  4 beta functions with: 
                l(1) =   0
                l(2) =   0
                l(3) =   1
                l(4) =   1
     Q(r) pseudized with 0 coefficients 


     PseudoPot. # 2 for H  read from file:
     /home/cjw/pseudopotential/SSSP_1.1.2_PBE_efficiency/H.pbe-rrkjus_psl.1.0.0.UPF
     MD5 check sum: f52b6d4d1c606e5624b1dc7b2218f220
     Pseudo is Ultrasoft, Zval =  1.0
     Generated using "atomic" code by A. Dal Corso  v.5.1
     Using radial grid of  929 points,  2 beta functions with: 
                l(1) =   0
                l(2) =   0
     Q(r) pseudized with 0 coefficients 


     Mode symmetry, C_1 (1)     point group:

     k=gamma and q=gamma tricks are used


     Atomic displacements:
     There are    9 irreducible representations

     Representation     1      1 modes -  To be done

     Representation     2      1 modes -  To be done

     Representation     3      1 modes -  To be done

     Representation     4      1 modes -  To be done

     Representation     5      1 modes -  To be done

     Representation     6      1 modes -  To be done

     Representation     7      1 modes -  To be done

     Representation     8      1 modes -  To be done

     Representation     9      1 modes -  To be done



     Alpha used in Ewald sum =   2.8000

     negative rho (up, down):  1.225E-03 1.225E-03
     PHONON       :     47.54s CPU     52.35s WALL



     Representation #   1 mode #   1

     Self-consistent Calculation
 
     Pert. #  1: Fermi energy shift (Ry) =     0.0000E+00     0.0000E+00

      iter #   1 total cpu time :    61.0 secs   av.it.:   8.0
      thresh= 1.000E-02 alpha_mix =  0.700 |ddv_scf|^2 =  2.012E-06
 
     Pert. #  1: Fermi energy shift (Ry) =     0.0000E+00     0.0000E+00

      iter #   2 total cpu time :    74.4 secs   av.it.:  12.0
      thresh= 1.418E-04 alpha_mix =  0.700 |ddv_scf|^2 =  1.780E-07
 
     Pert. #  1: Fermi energy shift (Ry) =     0.0000E+00     0.0000E+00

      iter #   3 total cpu time :   102.1 secs   av.it.:  11.0
      thresh= 4.219E-05 alpha_mix =  0.700 |ddv_scf|^2 =  1.934E-11
 
     Pert. #  1: Fermi energy shift (Ry) =     0.0000E+00     0.0000E+00

      iter #   4 total cpu time :   129.0 secs   av.it.:  15.0
      thresh= 4.397E-07 alpha_mix =  0.700 |ddv_scf|^2 =  1.760E-13

     End of self-consistent calculation

     Convergence has been achieved 


     Representation #   2 mode #   2

     Self-consistent Calculation
 
     Pert. #  1: Fermi energy shift (Ry) =     0.0000E+00     0.0000E+00

      iter #   1 total cpu time :   168.5 secs   av.it.:   7.0
      thresh= 1.000E-02 alpha_mix =  0.700 |ddv_scf|^2 =  5.554E-07
 
     Pert. #  1: Fermi energy shift (Ry) =     0.0000E+00     0.0000E+00

      iter #   2 total cpu time :   205.8 secs   av.it.:  12.0
      thresh= 7.453E-05 alpha_mix =  0.700 |ddv_scf|^2 =  4.951E-09
 
     Pert. #  1: Fermi energy shift (Ry) =     0.0000E+00     0.0000E+00

      iter #   3 total cpu time :   248.4 secs   av.it.:  13.0
      thresh= 7.037E-06 alpha_mix =  0.700 |ddv_scf|^2 =  3.524E-09
 
     Pert. #  1: Fermi energy shift (Ry) =     0.0000E+00     0.0000E+00

      iter #   4 total cpu time :   287.4 secs   av.it.:  12.0
      thresh= 5.937E-06 alpha_mix =  0.700 |ddv_scf|^2 =  8.747E-12
 
     Pert. #  1: Fermi energy shift (Ry) =     0.0000E+00     0.0000E+00

      iter #   5 total cpu time :   320.4 secs   av.it.:  12.0
      thresh= 2.958E-07 alpha_mix =  0.700 |ddv_scf|^2 =  3.379E-13

     End of self-consistent calculation

     Convergence has been achieved 


     Representation #   3 mode #   3

     Self-consistent Calculation
 
     Pert. #  1: Fermi energy shift (Ry) =     0.0000E+00     0.0000E+00

      iter #   1 total cpu time :   360.8 secs   av.it.:   8.0
      thresh= 1.000E-02 alpha_mix =  0.700 |ddv_scf|^2 =  3.114E-07
 
     Pert. #  1: Fermi energy shift (Ry) =     0.0000E+00     0.0000E+00

      iter #   2 total cpu time :   374.9 secs   av.it.:  13.0
      thresh= 5.580E-05 alpha_mix =  0.700 |ddv_scf|^2 =  1.569E-08
 
     Pert. #  1: Fermi energy shift (Ry) =     0.0000E+00     0.0000E+00

      iter #   3 total cpu time :   388.0 secs   av.it.:  14.0
      thresh= 1.253E-05 alpha_mix =  0.700 |ddv_scf|^2 =  4.283E-09
 
     Pert. #  1: Fermi energy shift (Ry) =     0.0000E+00     0.0000E+00

      iter #   4 total cpu time :   403.6 secs   av.it.:  15.0
      thresh= 6.544E-06 alpha_mix =  0.700 |ddv_scf|^2 =  2.153E-10
 
     Pert. #  1: Fermi energy shift (Ry) =     0.0000E+00     0.0000E+00

      iter #   5 total cpu time :   421.2 secs   av.it.:  15.0
      thresh= 1.467E-06 alpha_mix =  0.700 |ddv_scf|^2 =  1.997E-13

     End of self-consistent calculation

     Convergence has been achieved 


     Representation #   4 mode #   4

     Self-consistent Calculation
 
     Pert. #  1: Fermi energy shift (Ry) =     0.0000E+00     0.0000E+00

      iter #   1 total cpu time :   454.0 secs   av.it.:   5.0
      thresh= 1.000E-02 alpha_mix =  0.700 |ddv_scf|^2 =  2.678E-08
 
     Pert. #  1: Fermi energy shift (Ry) =     0.0000E+00     0.0000E+00

      iter #   2 total cpu time :   467.9 secs   av.it.:  11.0
      thresh= 1.637E-05 alpha_mix =  0.700 |ddv_scf|^2 =  2.400E-09
 
     Pert. #  1: Fermi energy shift (Ry) =     0.0000E+00     0.0000E+00

      iter #   3 total cpu time :   474.1 secs   av.it.:  11.0
      thresh= 4.899E-06 alpha_mix =  0.700 |ddv_scf|^2 =  7.060E-14

     End of self-consistent calculation

     Convergence has been achieved 


     Representation #   5 mode #   5

     Self-consistent Calculation
 
     Pert. #  1: Fermi energy shift (Ry) =     0.0000E+00     0.0000E+00

      iter #   1 total cpu time :   489.7 secs   av.it.:   6.0
      thresh= 1.000E-02 alpha_mix =  0.700 |ddv_scf|^2 =  5.969E-10
 
     Pert. #  1: Fermi energy shift (Ry) =     0.0000E+00     0.0000E+00

      iter #   2 total cpu time :   502.4 secs   av.it.:  16.0
      thresh= 2.443E-06 alpha_mix =  0.700 |ddv_scf|^2 =  4.073E-10
 
     Pert. #  1: Fermi energy shift (Ry) =     0.0000E+00     0.0000E+00

      iter #   3 total cpu time :   515.8 secs   av.it.:  15.0
      thresh= 2.018E-06 alpha_mix =  0.700 |ddv_scf|^2 =  2.948E-11
 
     Pert. #  1: Fermi energy shift (Ry) =     0.0000E+00     0.0000E+00

      iter #   4 total cpu time :   529.6 secs   av.it.:  15.0
      thresh= 5.430E-07 alpha_mix =  0.700 |ddv_scf|^2 =  1.921E-12
 
     Pert. #  1: Fermi energy shift (Ry) =     0.0000E+00     0.0000E+00

      iter #   5 total cpu time :   536.3 secs   av.it.:  15.0
      thresh= 1.386E-07 alpha_mix =  0.700 |ddv_scf|^2 =  8.914E-14

     End of self-consistent calculation

     Convergence has been achieved 


     Representation #   6 mode #   6

     Self-consistent Calculation
 
     Pert. #  1: Fermi energy shift (Ry) =     0.0000E+00     0.0000E+00

      iter #   1 total cpu time :   551.2 secs   av.it.:   6.0
      thresh= 1.000E-02 alpha_mix =  0.700 |ddv_scf|^2 =  5.454E-09
 
     Pert. #  1: Fermi energy shift (Ry) =     0.0000E+00     0.0000E+00

      iter #   2 total cpu time :   566.9 secs   av.it.:  14.0
      thresh= 7.385E-06 alpha_mix =  0.700 |ddv_scf|^2 =  2.084E-09
 
     Pert. #  1: Fermi energy shift (Ry) =     0.0000E+00     0.0000E+00

      iter #   3 total cpu time :   581.4 secs   av.it.:  15.0
      thresh= 4.565E-06 alpha_mix =  0.700 |ddv_scf|^2 =  2.615E-09
 
     Pert. #  1: Fermi energy shift (Ry) =     0.0000E+00     0.0000E+00

      iter #   4 total cpu time :   597.5 secs   av.it.:  15.0
      thresh= 5.114E-06 alpha_mix =  0.700 |ddv_scf|^2 =  2.920E-12
 
     Pert. #  1: Fermi energy shift (Ry) =     0.0000E+00     0.0000E+00

      iter #   5 total cpu time :   636.9 secs   av.it.:  15.0
      thresh= 1.709E-07 alpha_mix =  0.700 |ddv_scf|^2 =  2.564E-13

     End of self-consistent calculation

     Convergence has been achieved 


     Representation #   7 mode #   7

     Self-consistent Calculation
 
     Pert. #  1: Fermi energy shift (Ry) =     0.0000E+00     0.0000E+00

      iter #   1 total cpu time :   664.1 secs   av.it.:   5.0
      thresh= 1.000E-02 alpha_mix =  0.700 |ddv_scf|^2 =  1.742E-09
 
     Pert. #  1: Fermi energy shift (Ry) =     0.0000E+00     0.0000E+00

      iter #   2 total cpu time :   677.5 secs   av.it.:  13.0
      thresh= 4.173E-06 alpha_mix =  0.700 |ddv_scf|^2 =  1.540E-10
 
     Pert. #  1: Fermi energy shift (Ry) =     0.0000E+00     0.0000E+00

      iter #   3 total cpu time :   684.0 secs   av.it.:  12.0
      thresh= 1.241E-06 alpha_mix =  0.700 |ddv_scf|^2 =  2.211E-13

     End of self-consistent calculation

     Convergence has been achieved 


     Representation #   8 mode #   8

     Self-consistent Calculation
 
     Pert. #  1: Fermi energy shift (Ry) =     0.0000E+00     0.0000E+00

      iter #   1 total cpu time :   703.3 secs   av.it.:   6.0
      thresh= 1.000E-02 alpha_mix =  0.700 |ddv_scf|^2 =  3.090E-09
 
     Pert. #  1: Fermi energy shift (Ry) =     0.0000E+00     0.0000E+00

      iter #   2 total cpu time :   717.8 secs   av.it.:  15.0
      thresh= 5.559E-06 alpha_mix =  0.700 |ddv_scf|^2 =  1.215E-09
 
     Pert. #  1: Fermi energy shift (Ry) =     0.0000E+00     0.0000E+00

      iter #   3 total cpu time :   730.0 secs   av.it.:  15.0
      thresh= 3.486E-06 alpha_mix =  0.700 |ddv_scf|^2 =  7.244E-10
 
     Pert. #  1: Fermi energy shift (Ry) =     0.0000E+00     0.0000E+00

      iter #   4 total cpu time :   742.9 secs   av.it.:  15.0
      thresh= 2.691E-06 alpha_mix =  0.700 |ddv_scf|^2 =  2.154E-12
 
     Pert. #  1: Fermi energy shift (Ry) =     0.0000E+00     0.0000E+00

      iter #   5 total cpu time :   749.6 secs   av.it.:  15.0
      thresh= 1.468E-07 alpha_mix =  0.700 |ddv_scf|^2 =  9.233E-14

     End of self-consistent calculation

     Convergence has been achieved 


     Representation #   9 mode #   9

     Self-consistent Calculation
 
     Pert. #  1: Fermi energy shift (Ry) =     0.0000E+00     0.0000E+00

      iter #   1 total cpu time :   765.0 secs   av.it.:   6.0
      thresh= 1.000E-02 alpha_mix =  0.700 |ddv_scf|^2 =  1.044E-09
 
     Pert. #  1: Fermi energy shift (Ry) =     0.0000E+00     0.0000E+00

      iter #   2 total cpu time :   777.2 secs   av.it.:  15.0
      thresh= 3.230E-06 alpha_mix =  0.700 |ddv_scf|^2 =  4.169E-10
 
     Pert. #  1: Fermi energy shift (Ry) =     0.0000E+00     0.0000E+00

      iter #   3 total cpu time :   791.2 secs   av.it.:  15.0
      thresh= 2.042E-06 alpha_mix =  0.700 |ddv_scf|^2 =  8.047E-11
 
     Pert. #  1: Fermi energy shift (Ry) =     0.0000E+00     0.0000E+00

      iter #   4 total cpu time :   834.8 secs   av.it.:  15.0
      thresh= 8.971E-07 alpha_mix =  0.700 |ddv_scf|^2 =  1.179E-12
 
     Pert. #  1: Fermi energy shift (Ry) =     0.0000E+00     0.0000E+00

      iter #   5 total cpu time :   871.5 secs   av.it.:  14.0
      thresh= 1.086E-07 alpha_mix =  0.700 |ddv_scf|^2 =  3.208E-13

     End of self-consistent calculation

     Convergence has been achieved 
 
     Number of q in the star =    1
     List of q in the star:
          1   0.000000000   0.000000000   0.000000000

     Diagonalizing the dynamical matrix

     q = (    0.000000000   0.000000000   0.000000000 ) 

 **************************************************************************
     freq (    1) =     -14.727720 [THz] =    -491.263876 [cm-1]
     freq (    2) =      -4.705067 [THz] =    -156.944144 [cm-1]
     freq (    3) =      -3.299329 [THz] =    -110.053763 [cm-1]
     freq (    4) =       3.564559 [THz] =     118.900898 [cm-1]
     freq (    5) =       3.826501 [THz] =     127.638326 [cm-1]
     freq (    6) =      13.265609 [THz] =     442.493082 [cm-1]
     freq (    7) =      47.808265 [THz] =    1594.712062 [cm-1]
     freq (    8) =     111.565365 [THz] =    3721.419996 [cm-1]
     freq (    9) =     114.190948 [THz] =    3809.000034 [cm-1]
 **************************************************************************

     Mode symmetry, C_1 (1)     point group:

     freq (   1-   1) =       -491.3  [cm-1]   -->   ?
     freq (   2-   2) =       -156.9  [cm-1]   -->   ?
     freq (   3-   3) =       -110.1  [cm-1]   -->   ?
     freq (   4-   4) =        118.9  [cm-1]   -->   ?
     freq (   5-   5) =        127.6  [cm-1]   -->   ?
     freq (   6-   6) =        442.5  [cm-1]   -->   ?
     freq (   7-   7) =       1594.7  [cm-1]   --> A               I+R
     freq (   8-   8) =       3721.4  [cm-1]   --> A               I+R
     freq (   9-   9) =       3809.0  [cm-1]   --> A               I+R
 
     PHONON       :  10m31.87s CPU  14m42.25s WALL

     INITIALIZATION: 
     phq_setup    :      3.98s CPU      5.08s WALL (       1 calls)
     phq_init     :     35.81s CPU     37.48s WALL (       1 calls)
 
     phq_init     :     35.81s CPU     37.48s WALL (       1 calls)
     set_drhoc    :      8.61s CPU      8.65s WALL (       3 calls)
     init_vloc    :      0.14s CPU      0.14s WALL (       1 calls)
     init_us_1    :      0.01s CPU      0.01s WALL (       1 calls)
     init_us_2    :      0.34s CPU      0.37s WALL (     140 calls)
     newd         :      0.33s CPU      0.56s WALL (       1 calls)
     dvanqq       :     11.61s CPU     11.83s WALL (       1 calls)
     drho         :      9.16s CPU     10.32s WALL (       1 calls)
 
     DYNAMICAL MATRIX:
     dynmat0      :      8.26s CPU      8.52s WALL (       1 calls)
     phqscf       :    583.86s CPU    829.09s WALL (       1 calls)
     dynmatrix    :      0.29s CPU      0.29s WALL (       1 calls)
 
     phqscf       :    583.86s CPU    829.09s WALL (       1 calls)
     solve_linter :    576.11s CPU    811.78s WALL (       9 calls)
     drhodv       :      6.85s CPU      7.02s WALL (       9 calls)
 
     dynmat0      :      8.26s CPU      8.52s WALL (       1 calls)
     dynmat_us    :      0.38s CPU      0.39s WALL (       1 calls)
     d2ionq       :      0.21s CPU      0.21s WALL (       1 calls)
     dynmatcc     :      7.67s CPU      7.90s WALL (       1 calls)
 
     dynmat_us    :      0.38s CPU      0.39s WALL (       1 calls)
     addusdynmat  :      0.00s CPU      0.00s WALL (       1 calls)
 
     phqscf       :    583.86s CPU    829.09s WALL (       1 calls)
     solve_linter :    576.11s CPU    811.78s WALL (       9 calls)
 
     solve_linter :    576.11s CPU    811.78s WALL (       9 calls)
     dvqpsi_us    :     14.10s CPU     14.69s WALL (      18 calls)
     sth_kernel   :    323.45s CPU    335.04s WALL (      40 calls)
     apply_dpot_b :     14.00s CPU     14.63s WALL (      62 calls)
     ortho        :      1.78s CPU      1.89s WALL (      80 calls)
     cgsolve      :    285.59s CPU    295.84s WALL (      80 calls)
     incdrhoscf   :     20.50s CPU     20.80s WALL (      80 calls)
     addusddens   :     36.25s CPU     39.37s WALL (      49 calls)
     dv_of_drho   :     62.07s CPU     73.60s WALL (      40 calls)
     mix_pot      :      6.24s CPU    144.34s WALL (      40 calls)
     ef_shift     :      7.35s CPU      8.04s WALL (      40 calls)
     ef_shift_wfc :      0.00s CPU      0.04s WALL (       9 calls)
     localdos     :     13.41s CPU     14.29s WALL (       9 calls)
     newdq        :     26.20s CPU     28.37s WALL (      40 calls)
     adddvscf     :      0.21s CPU      0.22s WALL (      62 calls)
     drhodvus     :      1.19s CPU      2.13s WALL (       9 calls)
 
     dvqpsi_us    :     14.10s CPU     14.69s WALL (      18 calls)
     dvqpsi_us_on :      0.05s CPU      0.05s WALL (      18 calls)
 
     cgsolve      :    285.59s CPU    295.84s WALL (      80 calls)
     ch_psi       :    259.31s CPU    268.69s WALL (    1302 calls)
 
     ch_psi       :    259.31s CPU    268.69s WALL (    1302 calls)
     h_psi        :    235.96s CPU    244.70s WALL (    1302 calls)
     last         :     21.47s CPU     22.08s WALL (    1302 calls)
 
     h_psi        :    235.96s CPU    244.70s WALL (    1302 calls)
     add_vuspsi   :      1.15s CPU      1.17s WALL (    1302 calls)
 
     incdrhoscf   :     20.50s CPU     20.80s WALL (      80 calls)
     addusdbec    :      0.80s CPU      0.80s WALL (      98 calls)
 
     drhodvus     :      1.19s CPU      2.13s WALL (       9 calls)
 
      General routines
     calbec       :     24.93s CPU     25.73s WALL (    2892 calls)
     fft          :     87.81s CPU     97.93s WALL (    1713 calls)
     ffts         :     17.65s CPU     18.69s WALL (     378 calls)
     fftw         :    256.84s CPU    266.41s WALL (    9500 calls)
     davcio       :      0.11s CPU      5.87s WALL (     754 calls)
     write_rec    :      1.94s CPU     72.00s WALL (      49 calls)
 
 
     PHONON       :  10m31.87s CPU  14m42.25s WALL

 
   This run was terminated on:  10:17:36  31May2023            

=------------------------------------------------------------------------------=
   JOB DONE.
=------------------------------------------------------------------------------=
