
     Program PWSCF v.7.1 starts on 17Jun2023 at 11: 9:11 

     This program is part of the open-source Quantum ESPRESSO suite
     for quantum simulation of materials; please cite
         "P. Giannozzi et al., J. Phys.:Condens. Matter 21 395502 (2009);
         "P. Giannozzi et al., J. Phys.:Condens. Matter 29 465901 (2017);
         "P. Giannozzi et al., J. Chem. Phys. 152 154105 (2020);
          URL http://www.quantum-espresso.org", 
     in publications or presentations arising from this work. More details at
     http://www.quantum-espresso.org/quote

     Parallel version (MPI), running on    24 processors

     MPI processes distributed on     1 nodes
     223627 MiB available memory on the printing compute node when the environment starts
 
     Waiting for input...
     Reading input from standard input

     Current dimensions of program PWSCF are:
     Max number of different atomic species (ntypx) = 10
     Max number of k-points (npk) =  40000
     Max angular momentum in pseudopotentials (lmaxx) =  4
     file Al.pbe-n-kjpaw_psl.1.0.0.UPF: wavefunction(s)  3S 3P renormalized
     Found identity + ( -0.5000  0.0000  0.0000) symmetry
     This is a supercell, fractional translations are disabled
     Message from routine setup:
     using ibrav=0 with symmetry is DISCOURAGED, use correct ibrav instead
 
     R & G space division:  proc/nbgrp/npool/nimage =      24
     Subspace diagonalization in iterative solution of the eigenvalue problem:
     a serial algorithm will be used

 
     Parallelization info
     --------------------
     sticks:   dense  smooth     PW     G-vecs:    dense   smooth      PW
     Min          81      53     15                 7361     3997     601
     Max          82      54     16                 7370     4010     612
     Sum        1945    1285    367               176729    96075   14525
 
     Using Slab Decomposition
 


     bravais-lattice index     =            0
     lattice parameter (alat)  =      10.8235  a.u.
     unit-cell volume          =    2813.7848 (a.u.)^3
     number of atoms/cell      =           12
     number of atomic types    =            1
     number of electrons       =        36.00
     number of Kohn-Sham states=           22
     kinetic-energy cutoff     =      40.0000  Ry
     charge density cutoff     =     240.0000  Ry
     scf convergence threshold =      1.0E-07
     mixing beta               =       0.7000
     number of iterations used =            8  plain     mixing
     energy convergence thresh.=      1.0E-04
     force convergence thresh. =      7.0E-04
     Exchange-correlation= SLA  PW   PBX  PBC
                           (   1   4   3   4   0   0   0)
     nstep                     =           50


     celldm(1)=  10.823529  celldm(2)=   0.000000  celldm(3)=   0.000000
     celldm(4)=   0.000000  celldm(5)=   0.000000  celldm(6)=   0.000000

     crystal axes: (cart. coord. in units of alat)
               a(1) = (   1.000000   0.000000   0.000000 )  
               a(2) = (   0.500000   0.866025   0.000000 )  
               a(3) = (   0.000000   0.000000   2.562439 )  

     reciprocal axes: (cart. coord. in units 2 pi/alat)
               b(1) = (  1.000000 -0.577350  0.000000 )  
               b(2) = (  0.000000  1.154701  0.000000 )  
               b(3) = (  0.000000  0.000000  0.390253 )  


     PseudoPot. # 1 for Al read from file:
     /home/yyj/SSSP_1.3.0_PBE_efficiency/Al.pbe-n-kjpaw_psl.1.0.0.UPF
     MD5 check sum: cfc449ca30b5f3223ec38ddd88ac046d
     Pseudo is Projector augmented-wave + core cor, Zval =  3.0
     Generated using "atomic" code by A. Dal Corso  v.5.1
     Shape of augmentation charge: PSQ
     Using radial grid of 1135 points,  6 beta functions with: 
                l(1) =   0
                l(2) =   0
                l(3) =   1
                l(4) =   1
                l(5) =   2
                l(6) =   2
     Q(r) pseudized with 0 coefficients 


     atomic species   valence    mass     pseudopotential
        Al             3.00    26.98154     Al( 1.00)

      6 Sym. Ops. (no inversion) found



   Cartesian axes

     site n.     atom                  positions (alat units)
         1           Al  tau(   1) = (   0.2500000   0.1443376   0.0000000  )
         2           Al  tau(   2) = (   0.7500001   0.1443376   0.0000000  )
         3           Al  tau(   3) = (   0.4999999   0.5773502   0.0000000  )
         4           Al  tau(   4) = (   1.0000000   0.5773502   0.0000000  )
         5           Al  tau(   5) = (   0.0000000   0.2886752   0.4082484  )
         6           Al  tau(   6) = (   0.4999999   0.2886752   0.4082484  )
         7           Al  tau(   7) = (   0.2500000   0.7216878   0.4082484  )
         8           Al  tau(   8) = (   0.7500001   0.7216878   0.4082484  )
         9           Al  tau(   9) = (   0.0000000   0.0000000   0.8164965  )
        10           Al  tau(  10) = (   0.4999999   0.0000000   0.8164965  )
        11           Al  tau(  11) = (   0.2500000   0.4330126   0.8164965  )
        12           Al  tau(  12) = (   0.7500001   0.4330126   0.8164965  )

     number of k points=     7  Gaussian smearing, width (Ry)=  0.0030
                       cart. coord. in units 2pi/alat
        k(    1) = (   0.0000000   0.0000000   0.0000000), wk =   0.0555556
        k(    2) = (   0.0000000   0.1924501   0.0000000), wk =   0.3333333
        k(    3) = (   0.0000000   0.3849002   0.0000000), wk =   0.3333333
        k(    4) = (   0.0000000  -0.5773503   0.0000000), wk =   0.1666667
        k(    5) = (   0.1666667   0.2886751   0.0000000), wk =   0.3333333
        k(    6) = (   0.1666667  -0.6735753   0.0000000), wk =   0.6666667
        k(    7) = (   0.3333333  -0.5773503   0.0000000), wk =   0.1111111

     Dense  grid:   176729 G-vectors     FFT dimensions: (  54,  54, 144)

     Smooth grid:    96075 G-vectors     FFT dimensions: (  45,  45, 120)

     Estimated max dynamical RAM per process >      33.30 MB

     Estimated total dynamical RAM >     799.20 MB

     Initial potential from superposition of free atoms

     starting charge      35.9725, renormalised to      36.0000
     Starting wfcs are   48 randomized atomic wfcs
     Checking if some PAW data can be deallocated... 

     total cpu time spent up to now is        0.6 secs

     Self-consistent Calculation

     iteration #  1     ecut=    40.00 Ry     beta= 0.70
     Davidson diagonalization with overlap
     ethr =  1.00E-02,  avg # of iterations =  3.6

     total cpu time spent up to now is        1.1 secs

     total energy              =    -473.44281036 Ry
     estimated scf accuracy    <       0.60161510 Ry

     iteration #  2     ecut=    40.00 Ry     beta= 0.70
     Davidson diagonalization with overlap
     ethr =  1.67E-03,  avg # of iterations =  4.9

     total cpu time spent up to now is        1.7 secs

     total energy              =    -472.85930656 Ry
     estimated scf accuracy    <       7.52243593 Ry

     iteration #  3     ecut=    40.00 Ry     beta= 0.70
     Davidson diagonalization with overlap
     ethr =  1.67E-03,  avg # of iterations =  5.3

     total cpu time spent up to now is        2.3 secs

     total energy              =    -473.80539453 Ry
     estimated scf accuracy    <       0.02665823 Ry

     iteration #  4     ecut=    40.00 Ry     beta= 0.70
     Davidson diagonalization with overlap
     ethr =  7.41E-05,  avg # of iterations =  5.0

     total cpu time spent up to now is        2.8 secs

     total energy              =    -473.82025759 Ry
     estimated scf accuracy    <       0.06198619 Ry

     iteration #  5     ecut=    40.00 Ry     beta= 0.70
     Davidson diagonalization with overlap
     ethr =  7.41E-05,  avg # of iterations =  2.1

     total cpu time spent up to now is        3.2 secs

     total energy              =    -473.82017001 Ry
     estimated scf accuracy    <       0.03094758 Ry

     iteration #  6     ecut=    40.00 Ry     beta= 0.70
     Davidson diagonalization with overlap
     ethr =  7.41E-05,  avg # of iterations =  1.0

     total cpu time spent up to now is        3.7 secs

     total energy              =    -473.81831594 Ry
     estimated scf accuracy    <       0.01023958 Ry

     iteration #  7     ecut=    40.00 Ry     beta= 0.70
     Davidson diagonalization with overlap
     ethr =  2.84E-05,  avg # of iterations =  5.0

     total cpu time spent up to now is        4.2 secs

     total energy              =    -473.82087424 Ry
     estimated scf accuracy    <       0.00182171 Ry

     iteration #  8     ecut=    40.00 Ry     beta= 0.70
     Davidson diagonalization with overlap
     ethr =  5.06E-06,  avg # of iterations =  3.7

     negative rho (up, down):  1.263E-06 0.000E+00

     total cpu time spent up to now is        4.7 secs

     total energy              =    -473.82049653 Ry
     estimated scf accuracy    <       0.00171358 Ry

     iteration #  9     ecut=    40.00 Ry     beta= 0.70
     Davidson diagonalization with overlap
     ethr =  4.76E-06,  avg # of iterations =  2.0

     negative rho (up, down):  1.638E-06 0.000E+00

     total cpu time spent up to now is        5.1 secs

     total energy              =    -473.82088260 Ry
     estimated scf accuracy    <       0.00020145 Ry

     iteration # 10     ecut=    40.00 Ry     beta= 0.70
     Davidson diagonalization with overlap
     ethr =  5.60E-07,  avg # of iterations =  3.7

     negative rho (up, down):  5.083E-07 0.000E+00

     total cpu time spent up to now is        5.6 secs

     total energy              =    -473.82083438 Ry
     estimated scf accuracy    <       0.00028868 Ry

     iteration # 11     ecut=    40.00 Ry     beta= 0.70
     Davidson diagonalization with overlap
     ethr =  5.60E-07,  avg # of iterations =  1.9

     negative rho (up, down):  4.847E-07 0.000E+00

     total cpu time spent up to now is        6.0 secs

     total energy              =    -473.82086311 Ry
     estimated scf accuracy    <       0.00000616 Ry

     iteration # 12     ecut=    40.00 Ry     beta= 0.70
     Davidson diagonalization with overlap
     ethr =  1.71E-08,  avg # of iterations =  6.7

     negative rho (up, down):  4.992E-07 0.000E+00

     total cpu time spent up to now is        6.6 secs

     total energy              =    -473.82087073 Ry
     estimated scf accuracy    <       0.00000541 Ry

     iteration # 13     ecut=    40.00 Ry     beta= 0.70
     Davidson diagonalization with overlap
     ethr =  1.50E-08,  avg # of iterations =  1.0

     negative rho (up, down):  5.018E-07 0.000E+00

     total cpu time spent up to now is        7.1 secs

     total energy              =    -473.82087022 Ry
     estimated scf accuracy    <       0.00000568 Ry

     iteration # 14     ecut=    40.00 Ry     beta= 0.70
     Davidson diagonalization with overlap
     ethr =  1.50E-08,  avg # of iterations =  1.1

     negative rho (up, down):  5.250E-07 0.000E+00

     total cpu time spent up to now is        7.5 secs

     total energy              =    -473.82086992 Ry
     estimated scf accuracy    <       0.00000279 Ry

     iteration # 15     ecut=    40.00 Ry     beta= 0.70
     Davidson diagonalization with overlap
     ethr =  7.74E-09,  avg # of iterations =  3.1

     negative rho (up, down):  5.280E-07 0.000E+00

     total cpu time spent up to now is        8.0 secs

     total energy              =    -473.82086999 Ry
     estimated scf accuracy    <       0.00000059 Ry

     iteration # 16     ecut=    40.00 Ry     beta= 0.70
     Davidson diagonalization with overlap
     ethr =  1.65E-09,  avg # of iterations =  2.6

     negative rho (up, down):  5.307E-07 0.000E+00

     total cpu time spent up to now is        8.5 secs

     total energy              =    -473.82087002 Ry
     estimated scf accuracy    <       0.00000020 Ry

     iteration # 17     ecut=    40.00 Ry     beta= 0.70
     Davidson diagonalization with overlap
     ethr =  5.59E-10,  avg # of iterations =  4.1

     negative rho (up, down):  5.279E-07 0.000E+00

     total cpu time spent up to now is        9.0 secs

     End of self-consistent calculation

          k = 0.0000 0.0000 0.0000 ( 11947 PWs)   bands (ev):

    -8.6768  -7.0212  -4.4185  -2.8206  -2.8206  -2.8206  -2.7913  -2.7913
    -2.7913  -1.4507  -1.4507  -1.4507  -1.2950  -0.9264  -0.9264  -0.9264
     1.3340   1.3340   1.3340   1.5656   1.5656   1.5656

          k = 0.0000 0.1925 0.0000 ( 11989 PWs)   bands (ev):

    -8.5102  -6.8558  -4.5698  -4.2536  -3.6034  -3.6034  -2.9543  -2.0138
    -2.0138  -1.7072  -1.7072  -1.1379  -0.8899  -0.2307  -0.1076  -0.1076
     0.7330   0.7330   0.9667   2.3317   2.5056   2.5058

          k = 0.0000 0.3849 0.0000 ( 12015 PWs)   bands (ev):

    -8.0114  -6.3607  -6.0340  -4.4000  -4.0852  -4.0852  -3.7606  -2.4760
    -2.4760  -1.8260  -0.6670  -0.4262  -0.4262   0.2335   0.2335   1.1299
     1.4223   1.4223   1.7447   2.7948   2.9765   2.9765

          k = 0.0000-0.5774 0.0000 ( 12036 PWs)   bands (ev):

    -7.1841  -7.1841  -5.5399  -5.5399  -4.2463  -4.2463  -2.9459  -2.9459
    -2.6330  -2.6330  -0.1561  -0.1561   0.1142   0.1142   1.3666   1.3666
     1.6193   1.6193   2.7484   2.7484   3.0780   3.0780

          k = 0.1667 0.2887 0.0000 ( 12009 PWs)   bands (ev):

    -8.1775  -6.5255  -5.2185  -5.2185  -3.9246  -3.5931  -3.5931  -2.3468
    -2.3096  -1.0601  -1.0601  -0.9893  -0.8238  -0.4468   0.5675   0.5675
     1.7736   1.9224   1.9835   1.9835   2.2346   2.2346

          k = 0.1667-0.6736 0.0000 ( 12027 PWs)   bands (ev):

    -7.5144  -6.5257  -5.8675  -5.5440  -4.8871  -3.9147  -3.2706  -2.6437
    -2.3014  -1.3511  -1.0754  -0.7648  -0.1973   0.7312   0.7946   1.0074
     1.5823   1.7308   2.2110   2.8812   2.9922   3.2382

          k = 0.3333-0.5774 0.0000 ( 12015 PWs)   bands (ev):

    -6.6900  -6.6900  -6.6900  -5.0499  -5.0499  -5.0499  -2.4614  -2.4614
    -2.4614  -0.9322  -0.9322  -0.8694   0.1807   0.5804   0.5804   0.5804
     0.9381   0.9381   3.3434   3.3434   3.7199   3.8246

     the Fermi energy is     1.7513 ev

!    total energy              =    -473.82087003 Ry
     total all-electron energy =     -5827.534249 Ry
     estimated scf accuracy    <       0.00000003 Ry
     smearing contrib. (-TS)   =      -0.00092259 Ry
     internal energy E=F+TS    =    -473.81994744 Ry

     The total energy is F=E-TS. E is the sum of the following terms:
     one-electron contribution =    -170.11847852 Ry
     hartree contribution      =      96.04775503 Ry
     xc contribution           =     -30.41177208 Ry
     ewald contribution        =      46.80299174 Ry
     one-center paw contrib.   =    -416.14044362 Ry

     convergence has been achieved in  17 iterations

     negative rho (up, down):  5.279E-07 0.000E+00

     Forces acting on atoms (cartesian axes, Ry/au):

     atom    1 type  1   force =    -0.00000076   -0.00000044    0.00503211
     atom    2 type  1   force =     0.00000076   -0.00000044    0.00503211
     atom    3 type  1   force =     0.00000000    0.00000088    0.00503211
     atom    4 type  1   force =     0.00000000   -0.00000000    0.00503137
     atom    5 type  1   force =     0.00000000    0.00000007    0.00000241
     atom    6 type  1   force =     0.00000000    0.00000000    0.00000128
     atom    7 type  1   force =    -0.00000006   -0.00000004    0.00000241
     atom    8 type  1   force =     0.00000006   -0.00000004    0.00000241
     atom    9 type  1   force =     0.00000000   -0.00000000   -0.00503261
     atom   10 type  1   force =     0.00000000   -0.00000188   -0.00503453
     atom   11 type  1   force =    -0.00000163    0.00000094   -0.00503453
     atom   12 type  1   force =     0.00000163    0.00000094   -0.00503453

     Total force =     0.010068     Total SCF correction =     0.000180

     BFGS Geometry Optimization
     Energy error            =      0.0E+00 Ry
     Gradient error          =      5.0E-03 Ry/Bohr

     number of scf cycles    =   1
     number of bfgs steps    =   0

     energy             new  =    -473.8208700302 Ry

     new trust radius        =       0.0050345256 bohr
     new conv_thr            =       0.0000001000 Ry


ATOMIC_POSITIONS (angstrom)
Al            1.4318910000        0.8267030000        0.0000000000    0   0   0
Al            4.2956740000        0.8267030000        0.0000000000    0   0   0
Al            2.8637820000        3.3068110000        0.0000000000    0   0   0
Al            5.7275650000        3.3068110000        0.0000000000    0   0   0
Al            0.0000000000        1.6534060373        2.3382702737
Al            2.8637820000        1.6534060000        2.3382696786
Al            1.4318909677        4.1335139814        2.3382702737
Al            4.2956740323        4.1335139814        2.3382702737
Al            0.0000000000       -0.0000000000        4.6738738551
Al            2.8637820000       -0.0000009964        4.6738728439
Al            1.4318901371        2.4801084982        4.6738728439
Al            4.2956748629        2.4801084982        4.6738728439



     Writing config-only to output data dir ./output/pwscf.save/
     NEW-OLD atomic charge density approx. for the potential

     negative rho (up, down):  6.842E-07 0.000E+00

     total cpu time spent up to now is        9.6 secs

     Self-consistent Calculation

     iteration #  1     ecut=    40.00 Ry     beta= 0.70
     Davidson diagonalization with overlap
     ethr =  1.00E-06,  avg # of iterations =  2.0

     Threshold (ethr) on eigenvalues was too large:
     Diagonalizing with lowered threshold

     Davidson diagonalization with overlap
     ethr =  2.51E-08,  avg # of iterations =  4.4

     negative rho (up, down):  5.645E-07 0.000E+00

     total cpu time spent up to now is       10.5 secs

     total energy              =    -473.82095457 Ry
     estimated scf accuracy    <       0.00002235 Ry

     iteration #  2     ecut=    40.00 Ry     beta= 0.70
     Davidson diagonalization with overlap
     ethr =  6.21E-08,  avg # of iterations =  3.9

     negative rho (up, down):  5.565E-07 0.000E+00

     total cpu time spent up to now is       11.0 secs

     total energy              =    -473.82092525 Ry
     estimated scf accuracy    <       0.00042740 Ry

     iteration #  3     ecut=    40.00 Ry     beta= 0.70
     Davidson diagonalization with overlap
     ethr =  6.21E-08,  avg # of iterations =  4.4

     negative rho (up, down):  5.430E-07 0.000E+00

     total cpu time spent up to now is       11.6 secs

     total energy              =    -473.82096916 Ry
     estimated scf accuracy    <       0.00000081 Ry

     iteration #  4     ecut=    40.00 Ry     beta= 0.70
     Davidson diagonalization with overlap
     ethr =  2.26E-09,  avg # of iterations =  5.9

     negative rho (up, down):  5.377E-07 0.000E+00

     total cpu time spent up to now is       12.1 secs

     total energy              =    -473.82096964 Ry
     estimated scf accuracy    <       0.00000079 Ry

     iteration #  5     ecut=    40.00 Ry     beta= 0.70
     Davidson diagonalization with overlap
     ethr =  2.19E-09,  avg # of iterations =  3.9

     negative rho (up, down):  5.285E-07 0.000E+00

     total cpu time spent up to now is       12.6 secs

     total energy              =    -473.82096961 Ry
     estimated scf accuracy    <       0.00000326 Ry

     iteration #  6     ecut=    40.00 Ry     beta= 0.70
     Davidson diagonalization with overlap
     ethr =  2.19E-09,  avg # of iterations =  2.4

     negative rho (up, down):  5.257E-07 0.000E+00

     total cpu time spent up to now is       13.1 secs

     total energy              =    -473.82096976 Ry
     estimated scf accuracy    <       0.00000010 Ry

     iteration #  7     ecut=    40.00 Ry     beta= 0.70
     Davidson diagonalization with overlap
     ethr =  2.82E-10,  avg # of iterations =  5.0

     negative rho (up, down):  5.244E-07 0.000E+00

     total cpu time spent up to now is       13.5 secs

     End of self-consistent calculation

          k = 0.0000 0.0000 0.0000 ( 11947 PWs)   bands (ev):

    -8.6803  -7.0233  -4.4172  -2.8240  -2.8240  -2.8240  -2.7949  -2.7948
    -2.7948  -1.4531  -1.4531  -1.4531  -1.2945  -0.9283  -0.9283  -0.9283
     1.3350   1.3350   1.3350   1.5670   1.5670   1.5670

          k = 0.0000 0.1925 0.0000 ( 11989 PWs)   bands (ev):

    -8.5136  -6.8578  -4.5733  -4.2523  -3.6069  -3.6069  -2.9565  -2.0160
    -2.0160  -1.7107  -1.7107  -1.1373  -0.8924  -0.2306  -0.1094  -0.1094
     0.7339   0.7340   0.9647   2.3348   2.5066   2.5067

          k = 0.0000 0.3849 0.0000 ( 12015 PWs)   bands (ev):

    -8.0148  -6.3628  -6.0375  -4.4021  -4.0886  -4.0886  -3.7593  -2.4782
    -2.4782  -1.8248  -0.6664  -0.4287  -0.4287   0.2334   0.2334   1.1298
     1.4203   1.4203   1.7419   2.7979   2.9756   2.9756

          k = 0.0000-0.5774 0.0000 ( 12036 PWs)   bands (ev):

    -7.1875  -7.1875  -5.5419  -5.5419  -4.2497  -4.2497  -2.9446  -2.9446
    -2.6352  -2.6352  -0.1554  -0.1554   0.1147   0.1147   1.3632   1.3632
     1.6161   1.6161   2.7463   2.7463   3.0779   3.0779

          k = 0.1667 0.2887 0.0000 ( 12009 PWs)   bands (ev):

    -8.1809  -6.5276  -5.2220  -5.2219  -3.9233  -3.5953  -3.5953  -2.3502
    -2.3132  -1.0591  -1.0591  -0.9918  -0.8232  -0.4486   0.5642   0.5642
     1.7746   1.9230   1.9832   1.9832   2.2331   2.2331

          k = 0.1667-0.6736 0.0000 ( 12027 PWs)   bands (ev):

    -7.5178  -6.5292  -5.8696  -5.5475  -4.8891  -3.9168  -3.2693  -2.6472
    -2.3002  -1.3500  -1.0777  -0.7683  -0.1968   0.7316   0.7927   1.0044
     1.5821   1.7308   2.2081   2.8799   2.9889   3.2411

          k = 0.3333-0.5774 0.0000 ( 12015 PWs)   bands (ev):

    -6.6935  -6.6934  -6.6934  -5.0520  -5.0520  -5.0520  -2.4601  -2.4601
    -2.4601  -0.9362  -0.9352  -0.8730   0.1780   0.5809   0.5809   0.5809
     0.9359   0.9367   3.3441   3.3447   3.7218   3.8258

     the Fermi energy is     1.7507 ev

!    total energy              =    -473.82096974 Ry
     total all-electron energy =     -5827.534349 Ry
     estimated scf accuracy    <       0.00000006 Ry
     smearing contrib. (-TS)   =      -0.00091457 Ry
     internal energy E=F+TS    =    -473.82005517 Ry

     The total energy is F=E-TS. E is the sum of the following terms:
     one-electron contribution =    -170.30034986 Ry
     hartree contribution      =      96.13887659 Ry
     xc contribution           =     -30.41393798 Ry
     ewald contribution        =      46.89606281 Ry
     one-center paw contrib.   =    -416.14070673 Ry

     convergence has been achieved in   7 iterations

     negative rho (up, down):  5.244E-07 0.000E+00

     Forces acting on atoms (cartesian axes, Ry/au):

     atom    1 type  1   force =     0.00000015    0.00000009    0.00512929
     atom    2 type  1   force =    -0.00000015    0.00000009    0.00512929
     atom    3 type  1   force =     0.00000000   -0.00000017    0.00512929
     atom    4 type  1   force =     0.00000000    0.00000000    0.00512938
     atom    5 type  1   force =    -0.00000000   -0.00000013   -0.00026828
     atom    6 type  1   force =     0.00000000    0.00000000   -0.00026783
     atom    7 type  1   force =     0.00000011    0.00000006   -0.00026828
     atom    8 type  1   force =    -0.00000011    0.00000006   -0.00026828
     atom    9 type  1   force =     0.00000000    0.00000000   -0.00486110
     atom   10 type  1   force =     0.00000000    0.00000062   -0.00486116
     atom   11 type  1   force =     0.00000054   -0.00000031   -0.00486116
     atom   12 type  1   force =    -0.00000054   -0.00000031   -0.00486116

     Total force =     0.009737     Total SCF correction =     0.000291
     Energy error            =      1.0E-04 Ry
     Gradient error          =      4.9E-03 Ry/Bohr

     number of scf cycles    =   2
     number of bfgs steps    =   1

     energy             old  =    -473.8208700302 Ry
     energy             new  =    -473.8209697432 Ry

     CASE: energy            _new < energy            _old


     WARNING: bfgs curvature condition failed, Theta= 0.828
     new trust radius        =       0.0055379782 bohr
     new conv_thr            =       0.0000000010 Ry


ATOMIC_POSITIONS (angstrom)
Al            1.4318910000        0.8267030000        0.0000000000    0   0   0
Al            4.2956740000        0.8267030000        0.0000000000    0   0   0
Al            2.8637820000        3.3068110000        0.0000000000    0   0   0
Al            5.7275650000        3.3068110000        0.0000000000    0   0   0
Al           -0.0000000000        1.6534060254        2.3381984275
Al            2.8637820000        1.6534060000        2.3381975946
Al            1.4318909780        4.1335139873        2.3381984275
Al            4.2956740220        4.1335139873        2.3381984275
Al            0.0000000000       -0.0000000000        4.6709439140
Al            2.8637820000       -0.0000014315        4.6709422721
Al            1.4318897603        2.4801087158        4.6709422721
Al            4.2956752397        2.4801087158        4.6709422721



     Writing config-only to output data dir ./output/pwscf.save/
     NEW-OLD atomic charge density approx. for the potential

     negative rho (up, down):  7.101E-07 0.000E+00

     total cpu time spent up to now is       14.1 secs

     Self-consistent Calculation

     iteration #  1     ecut=    40.00 Ry     beta= 0.70
     Davidson diagonalization with overlap
     ethr =  1.00E-06,  avg # of iterations =  2.0

     Threshold (ethr) on eigenvalues was too large:
     Diagonalizing with lowered threshold

     Davidson diagonalization with overlap
     ethr =  2.02E-08,  avg # of iterations =  5.0

     negative rho (up, down):  5.647E-07 0.000E+00

     total cpu time spent up to now is       15.0 secs

     total energy              =    -473.82105798 Ry
     estimated scf accuracy    <       0.00002451 Ry

     iteration #  2     ecut=    40.00 Ry     beta= 0.70
     Davidson diagonalization with overlap
     ethr =  6.81E-08,  avg # of iterations =  5.7

     negative rho (up, down):  5.594E-07 0.000E+00

     total cpu time spent up to now is       15.6 secs

     total energy              =    -473.82098573 Ry
     estimated scf accuracy    <       0.00120763 Ry

     iteration #  3     ecut=    40.00 Ry     beta= 0.70
     Davidson diagonalization with overlap
     ethr =  6.81E-08,  avg # of iterations =  5.7

     negative rho (up, down):  5.542E-07 0.000E+00

     total cpu time spent up to now is       16.1 secs

     total energy              =    -473.82106533 Ry
     estimated scf accuracy    <       0.00011548 Ry

     iteration #  4     ecut=    40.00 Ry     beta= 0.70
     Davidson diagonalization with overlap
     ethr =  6.81E-08,  avg # of iterations =  2.6

     negative rho (up, down):  5.403E-07 0.000E+00

     total cpu time spent up to now is       16.6 secs

     total energy              =    -473.82107474 Ry
     estimated scf accuracy    <       0.00000111 Ry

     iteration #  5     ecut=    40.00 Ry     beta= 0.70
     Davidson diagonalization with overlap
     ethr =  3.10E-09,  avg # of iterations =  5.4

     negative rho (up, down):  5.243E-07 0.000E+00

     total cpu time spent up to now is       17.1 secs

     total energy              =    -473.82107530 Ry
     estimated scf accuracy    <       0.00000023 Ry

     iteration #  6     ecut=    40.00 Ry     beta= 0.70
     Davidson diagonalization with overlap
     ethr =  6.47E-10,  avg # of iterations =  2.9

     negative rho (up, down):  5.203E-07 0.000E+00

     total cpu time spent up to now is       17.5 secs

     total energy              =    -473.82107532 Ry
     estimated scf accuracy    <       0.00000006 Ry

     iteration #  7     ecut=    40.00 Ry     beta= 0.70
     Davidson diagonalization with overlap
     ethr =  1.60E-10,  avg # of iterations =  3.9

     negative rho (up, down):  5.197E-07 0.000E+00

     total cpu time spent up to now is       18.0 secs

     End of self-consistent calculation

          k = 0.0000 0.0000 0.0000 ( 11947 PWs)   bands (ev):

    -8.6841  -7.0256  -4.4158  -2.8279  -2.8279  -2.8279  -2.7988  -2.7988
    -2.7988  -1.4558  -1.4558  -1.4558  -1.2939  -0.9304  -0.9304  -0.9304
     1.3361   1.3361   1.3361   1.5685   1.5685   1.5685

          k = 0.0000 0.1925 0.0000 ( 11989 PWs)   bands (ev):

    -8.5174  -6.8601  -4.5772  -4.2508  -3.6107  -3.6107  -2.9589  -2.0185
    -2.0185  -1.7146  -1.7146  -1.1367  -0.8953  -0.2305  -0.1115  -0.1115
     0.7349   0.7349   0.9625   2.3383   2.5078   2.5078

          k = 0.0000 0.3849 0.0000 ( 12015 PWs)   bands (ev):

    -8.0186  -6.3651  -6.0413  -4.4045  -4.0925  -4.0925  -3.7579  -2.4806
    -2.4806  -1.8235  -0.6658  -0.4316  -0.4316   0.2334   0.2334   1.1296
     1.4180   1.4180   1.7386   2.8013   2.9747   2.9747

          k = 0.0000-0.5774 0.0000 ( 12036 PWs)   bands (ev):

    -7.1913  -7.1913  -5.5443  -5.5443  -4.2536  -4.2536  -2.9433  -2.9432
    -2.6376  -2.6376  -0.1546  -0.1546   0.1152   0.1152   1.3595   1.3595
     1.6126   1.6126   2.7438   2.7438   3.0778   3.0778

          k = 0.1667 0.2887 0.0000 ( 12009 PWs)   bands (ev):

    -8.1847  -6.5299  -5.2258  -5.2258  -3.9219  -3.5977  -3.5977  -2.3541
    -2.3171  -1.0581  -1.0581  -0.9945  -0.8227  -0.4508   0.5606   0.5606
     1.7756   1.9238   1.9828   1.9828   2.2314   2.2314

          k = 0.1667-0.6736 0.0000 ( 12027 PWs)   bands (ev):

    -7.5217  -6.5330  -5.8719  -5.5514  -4.8915  -3.9192  -3.2679  -2.6511
    -2.2989  -1.3487  -1.0802  -0.7722  -0.1962   0.7321   0.7906   1.0011
     1.5818   1.7307   2.2049   2.8783   2.9854   3.2442

          k = 0.3333-0.5774 0.0000 ( 12015 PWs)   bands (ev):

    -6.6973  -6.6973  -6.6973  -5.0543  -5.0543  -5.0543  -2.4588  -2.4588
    -2.4588  -0.9406  -0.9385  -0.8771   0.1749   0.5814   0.5814   0.5814
     0.9332   0.9352   3.3446   3.3462   3.7239   3.8271

     the Fermi energy is     1.7499 ev

!    total energy              =    -473.82107533 Ry
     total all-electron energy =     -5827.534454 Ry
     estimated scf accuracy    <          8.9E-10 Ry
     smearing contrib. (-TS)   =      -0.00090372 Ry
     internal energy E=F+TS    =    -473.82017162 Ry

     The total energy is F=E-TS. E is the sum of the following terms:
     one-electron contribution =    -170.49835717 Ry
     hartree contribution      =      96.23698905 Ry
     xc contribution           =     -30.41631076 Ry
     ewald contribution        =      46.99851348 Ry
     one-center paw contrib.   =    -416.14100621 Ry

     convergence has been achieved in   7 iterations

     negative rho (up, down):  5.197E-07 0.000E+00

     Forces acting on atoms (cartesian axes, Ry/au):

     atom    1 type  1   force =     0.00000015    0.00000008    0.00520953
     atom    2 type  1   force =    -0.00000015    0.00000008    0.00520953
     atom    3 type  1   force =     0.00000000   -0.00000017    0.00520953
     atom    4 type  1   force =     0.00000000   -0.00000000    0.00520950
     atom    5 type  1   force =     0.00000000    0.00000009   -0.00055722
     atom    6 type  1   force =     0.00000000    0.00000000   -0.00055766
     atom    7 type  1   force =    -0.00000008   -0.00000005   -0.00055722
     atom    8 type  1   force =     0.00000008   -0.00000005   -0.00055722
     atom    9 type  1   force =     0.00000000   -0.00000000   -0.00465197
     atom   10 type  1   force =     0.00000000    0.00000043   -0.00465227
     atom   11 type  1   force =     0.00000037   -0.00000021   -0.00465227
     atom   12 type  1   force =    -0.00000037   -0.00000021   -0.00465227

     Total force =     0.009371     Total SCF correction =     0.000035
     Energy error            =      1.1E-04 Ry
     Gradient error          =      4.7E-03 Ry/Bohr

     number of scf cycles    =   3
     number of bfgs steps    =   2

     energy             old  =    -473.8209697432 Ry
     energy             new  =    -473.8210753315 Ry

     CASE: energy            _new < energy            _old

     new trust radius        =       0.0083069673 bohr
     new conv_thr            =       0.0000000011 Ry


ATOMIC_POSITIONS (angstrom)
Al            1.4318910000        0.8267030000        0.0000000000    0   0   0
Al            4.2956740000        0.8267030000        0.0000000000    0   0   0
Al            2.8637820000        3.3068110000        0.0000000000    0   0   0
Al            5.7275650000        3.3068110000        0.0000000000    0   0   0
Al           -0.0000000000        1.6534061789        2.3378674212
Al            2.8637820000        1.6534060000        2.3378655180
Al            1.4318908450        4.1335139105        2.3378674212
Al            4.2956741550        4.1335139105        2.3378674212
Al            0.0000000000       -0.0000000000        4.6665492318
Al            2.8637820000       -0.0000022809        4.6665464144
Al            1.4318890247        2.4801091405        4.6665464144
Al            4.2956759753        2.4801091405        4.6665464144



     Writing config-only to output data dir ./output/pwscf.save/
     NEW-OLD atomic charge density approx. for the potential

     negative rho (up, down):  8.870E-07 0.000E+00

     total cpu time spent up to now is       18.6 secs

     Self-consistent Calculation

     iteration #  1     ecut=    40.00 Ry     beta= 0.70
     Davidson diagonalization with overlap
     ethr =  1.00E-06,  avg # of iterations =  2.9

     Threshold (ethr) on eigenvalues was too large:
     Diagonalizing with lowered threshold

     Davidson diagonalization with overlap
     ethr =  4.12E-08,  avg # of iterations =  4.4

     negative rho (up, down):  5.834E-07 0.000E+00

     total cpu time spent up to now is       19.5 secs

     total energy              =    -473.82120388 Ry
     estimated scf accuracy    <       0.00003478 Ry

     iteration #  2     ecut=    40.00 Ry     beta= 0.70
     Davidson diagonalization with overlap
     ethr =  9.66E-08,  avg # of iterations =  4.0

     negative rho (up, down):  5.708E-07 0.000E+00

     total cpu time spent up to now is       20.0 secs

     total energy              =    -473.82116079 Ry
     estimated scf accuracy    <       0.00061602 Ry

     iteration #  3     ecut=    40.00 Ry     beta= 0.70
     Davidson diagonalization with overlap
     ethr =  9.66E-08,  avg # of iterations =  4.3

     negative rho (up, down):  5.634E-07 0.000E+00

     total cpu time spent up to now is       20.6 secs

     total energy              =    -473.82122188 Ry
     estimated scf accuracy    <       0.00002968 Ry

     iteration #  4     ecut=    40.00 Ry     beta= 0.70
     Davidson diagonalization with overlap
     ethr =  8.24E-08,  avg # of iterations =  2.0

     negative rho (up, down):  5.438E-07 0.000E+00

     total cpu time spent up to now is       21.0 secs

     total energy              =    -473.82122514 Ry
     estimated scf accuracy    <       0.00002025 Ry

     iteration #  5     ecut=    40.00 Ry     beta= 0.70
     Davidson diagonalization with overlap
     ethr =  5.63E-08,  avg # of iterations =  1.0

     negative rho (up, down):  5.148E-07 0.000E+00

     total cpu time spent up to now is       21.5 secs

     total energy              =    -473.82122655 Ry
     estimated scf accuracy    <       0.00000034 Ry

     iteration #  6     ecut=    40.00 Ry     beta= 0.70
     Davidson diagonalization with overlap
     ethr =  9.57E-10,  avg # of iterations =  5.1

     negative rho (up, down):  5.138E-07 0.000E+00

     total cpu time spent up to now is       22.1 secs

     total energy              =    -473.82122672 Ry
     estimated scf accuracy    <       0.00000016 Ry

     iteration #  7     ecut=    40.00 Ry     beta= 0.70
     Davidson diagonalization with overlap
     ethr =  4.44E-10,  avg # of iterations =  1.4

     negative rho (up, down):  5.121E-07 0.000E+00

     total cpu time spent up to now is       22.5 secs

     total energy              =    -473.82122673 Ry
     estimated scf accuracy    <       0.00000002 Ry

     iteration #  8     ecut=    40.00 Ry     beta= 0.70
     Davidson diagonalization with overlap
     ethr =  4.81E-11,  avg # of iterations =  5.1

     negative rho (up, down):  5.113E-07 0.000E+00

     total cpu time spent up to now is       23.1 secs

     total energy              =    -473.82122673 Ry
     estimated scf accuracy    <       0.00000001 Ry

     iteration #  9     ecut=    40.00 Ry     beta= 0.70
     Davidson diagonalization with overlap
     ethr =  3.95E-11,  avg # of iterations =  2.4

     negative rho (up, down):  5.111E-07 0.000E+00

     total cpu time spent up to now is       23.5 secs

     End of self-consistent calculation

          k = 0.0000 0.0000 0.0000 ( 11947 PWs)   bands (ev):

    -8.6899  -7.0291  -4.4136  -2.8338  -2.8338  -2.8338  -2.8049  -2.8049
    -2.8049  -1.4600  -1.4600  -1.4600  -1.2930  -0.9336  -0.9336  -0.9336
     1.3378   1.3378   1.3378   1.5708   1.5708   1.5708

          k = 0.0000 0.1925 0.0000 ( 11989 PWs)   bands (ev):

    -8.5233  -6.8637  -4.5831  -4.2487  -3.6167  -3.6167  -2.9626  -2.0223
    -2.0223  -1.7206  -1.7206  -1.1358  -0.8997  -0.2304  -0.1146  -0.1146
     0.7363   0.7363   0.9591   2.3434   2.5095   2.5095

          k = 0.0000 0.3849 0.0000 ( 12015 PWs)   bands (ev):

    -8.0245  -6.3686  -6.0473  -4.4081  -4.0985  -4.0985  -3.7558  -2.4844
    -2.4844  -1.8216  -0.6650  -0.4360  -0.4360   0.2333   0.2333   1.1292
     1.4145   1.4145   1.7337   2.8063   2.9733   2.9733

          k = 0.0000-0.5774 0.0000 ( 12036 PWs)   bands (ev):

    -7.1972  -7.1972  -5.5478  -5.5478  -4.2596  -4.2596  -2.9412  -2.9412
    -2.6413  -2.6413  -0.1534  -0.1534   0.1160   0.1160   1.3536   1.3536
     1.6071   1.6071   2.7402   2.7402   3.0776   3.0776

          k = 0.1667 0.2887 0.0000 ( 12009 PWs)   bands (ev):

    -8.1906  -6.5334  -5.2318  -5.2318  -3.9198  -3.6013  -3.6013  -2.3600
    -2.3232  -1.0565  -1.0565  -0.9987  -0.8218  -0.4540   0.5550   0.5550
     1.7770   1.9248   1.9821   1.9821   2.2288   2.2288

          k = 0.1667-0.6736 0.0000 ( 12027 PWs)   bands (ev):

    -7.5276  -6.5389  -5.8755  -5.5573  -4.8951  -3.9229  -3.2659  -2.6571
    -2.2969  -1.3469  -1.0841  -0.7782  -0.1954   0.7327   0.7874   0.9960
     1.5813   1.7306   2.2000   2.8760   2.9799   3.2489

          k = 0.3333-0.5774 0.0000 ( 12015 PWs)   bands (ev):

    -6.7032  -6.7032  -6.7032  -5.0579  -5.0579  -5.0579  -2.4568  -2.4568
    -2.4568  -0.9472  -0.9438  -0.8834   0.1703   0.5821   0.5821   0.5821
     0.9294   0.9326   3.3456   3.3483   3.7270   3.8290

     the Fermi energy is     1.7487 ev

!    total energy              =    -473.82122674 Ry
     total all-electron energy =     -5827.534606 Ry
     estimated scf accuracy    <          7.2E-10 Ry
     smearing contrib. (-TS)   =      -0.00088354 Ry
     internal energy E=F+TS    =    -473.82034319 Ry

     The total energy is F=E-TS. E is the sum of the following terms:
     one-electron contribution =    -170.79558562 Ry
     hartree contribution      =      96.38427815 Ry
     xc contribution           =     -30.41988711 Ry
     ewald contribution        =      47.15231332 Ry
     one-center paw contrib.   =    -416.14146194 Ry

     convergence has been achieved in   9 iterations

     negative rho (up, down):  5.111E-07 0.000E+00

     Forces acting on atoms (cartesian axes, Ry/au):

     atom    1 type  1   force =     0.00000006    0.00000003    0.00529168
     atom    2 type  1   force =    -0.00000006    0.00000003    0.00529168
     atom    3 type  1   force =     0.00000000   -0.00000007    0.00529168
     atom    4 type  1   force =     0.00000000    0.00000000    0.00529175
     atom    5 type  1   force =    -0.00000000   -0.00000018   -0.00094484
     atom    6 type  1   force =     0.00000000    0.00000000   -0.00094449
     atom    7 type  1   force =     0.00000016    0.00000009   -0.00094484
     atom    8 type  1   force =    -0.00000016    0.00000009   -0.00094484
     atom    9 type  1   force =     0.00000000   -0.00000000   -0.00434718
     atom   10 type  1   force =    -0.00000000    0.00000065   -0.00434687
     atom   11 type  1   force =     0.00000056   -0.00000032   -0.00434687
     atom   12 type  1   force =    -0.00000056   -0.00000032   -0.00434687

     Total force =     0.008897     Total SCF correction =     0.000036
     Energy error            =      1.5E-04 Ry
     Gradient error          =      4.3E-03 Ry/Bohr

     number of scf cycles    =   4
     number of bfgs steps    =   3

     energy             old  =    -473.8210753315 Ry
     energy             new  =    -473.8212267353 Ry

     CASE: energy            _new < energy            _old

     new trust radius        =       0.0124604510 bohr
     new conv_thr            =       0.0000000015 Ry


ATOMIC_POSITIONS (angstrom)
Al            1.4318910000        0.8267030000        0.0000000000    0   0   0
Al            4.2956740000        0.8267030000        0.0000000000    0   0   0
Al            2.8637820000        3.3068110000        0.0000000000    0   0   0
Al            5.7275650000        3.3068110000        0.0000000000    0   0   0
Al           -0.0000000000        1.6534061853        2.3370708601
Al            2.8637820000        1.6534060000        2.3370679668
Al            1.4318908396        4.1335139074        2.3370708601
Al            4.2956741604        4.1335139074        2.3370708601
Al            0.0000000000       -0.0000000000        4.6599567864
Al            2.8637820000       -0.0000034377        4.6599526278
Al            1.4318880228        2.4801097189        4.6599526278
Al            4.2956769772        2.4801097189        4.6599526278



     Writing config-only to output data dir ./output/pwscf.save/
     NEW-OLD atomic charge density approx. for the potential

     negative rho (up, down):  1.283E-06 0.000E+00

     total cpu time spent up to now is       24.1 secs

     Self-consistent Calculation

     iteration #  1     ecut=    40.00 Ry     beta= 0.70
     Davidson diagonalization with overlap
     ethr =  1.00E-06,  avg # of iterations =  3.3

     Threshold (ethr) on eigenvalues was too large:
     Diagonalizing with lowered threshold

     Davidson diagonalization with overlap
     ethr =  7.79E-08,  avg # of iterations =  4.6

     negative rho (up, down):  6.172E-07 0.000E+00

     total cpu time spent up to now is       24.9 secs

     total energy              =    -473.82139329 Ry
     estimated scf accuracy    <       0.00007077 Ry

     iteration #  2     ecut=    40.00 Ry     beta= 0.70
     Davidson diagonalization with overlap
     ethr =  1.97E-07,  avg # of iterations =  4.1

     negative rho (up, down):  5.927E-07 0.000E+00

     total cpu time spent up to now is       25.4 secs

     total energy              =    -473.82130974 Ry
     estimated scf accuracy    <       0.00118675 Ry

     iteration #  3     ecut=    40.00 Ry     beta= 0.70
     Davidson diagonalization with overlap
     ethr =  1.97E-07,  avg # of iterations =  4.3

     negative rho (up, down):  5.640E-07 0.000E+00

     total cpu time spent up to now is       26.0 secs

     total energy              =    -473.82143513 Ry
     estimated scf accuracy    <       0.00001200 Ry

     iteration #  4     ecut=    40.00 Ry     beta= 0.70
     Davidson diagonalization with overlap
     ethr =  3.33E-08,  avg # of iterations =  5.0

     negative rho (up, down):  5.480E-07 0.000E+00

     total cpu time spent up to now is       26.5 secs

     total energy              =    -473.82143428 Ry
     estimated scf accuracy    <       0.00008617 Ry

     iteration #  5     ecut=    40.00 Ry     beta= 0.70
     Davidson diagonalization with overlap
     ethr =  3.33E-08,  avg # of iterations =  3.1

     negative rho (up, down):  5.065E-07 0.000E+00

     total cpu time spent up to now is       27.0 secs

     total energy              =    -473.82143925 Ry
     estimated scf accuracy    <       0.00000093 Ry

     iteration #  6     ecut=    40.00 Ry     beta= 0.70
     Davidson diagonalization with overlap
     ethr =  2.59E-09,  avg # of iterations =  5.0

     negative rho (up, down):  4.995E-07 0.000E+00

     total cpu time spent up to now is       27.5 secs

     total energy              =    -473.82143951 Ry
     estimated scf accuracy    <       0.00000045 Ry

     iteration #  7     ecut=    40.00 Ry     beta= 0.70
     Davidson diagonalization with overlap
     ethr =  1.24E-09,  avg # of iterations =  2.1

     negative rho (up, down):  4.984E-07 0.000E+00

     total cpu time spent up to now is       27.9 secs

     total energy              =    -473.82143956 Ry
     estimated scf accuracy    <          6.6E-09 Ry

     iteration #  8     ecut=    40.00 Ry     beta= 0.70
     Davidson diagonalization with overlap
     ethr =  1.82E-11,  avg # of iterations =  6.4

     negative rho (up, down):  4.983E-07 0.000E+00

     total cpu time spent up to now is       28.5 secs

     total energy              =    -473.82143956 Ry
     estimated scf accuracy    <       0.00000002 Ry

     iteration #  9     ecut=    40.00 Ry     beta= 0.70
     Davidson diagonalization with overlap
     ethr =  1.82E-11,  avg # of iterations =  1.9

     negative rho (up, down):  4.985E-07 0.000E+00

     total cpu time spent up to now is       29.0 secs

     End of self-consistent calculation

          k = 0.0000 0.0000 0.0000 ( 11947 PWs)   bands (ev):

    -8.6990  -7.0344  -4.4105  -2.8429  -2.8429  -2.8429  -2.8142  -2.8142
    -2.8142  -1.4662  -1.4662  -1.4662  -1.2916  -0.9385  -0.9385  -0.9385
     1.3403   1.3403   1.3403   1.5741   1.5741   1.5741

          k = 0.0000 0.1925 0.0000 ( 11989 PWs)   bands (ev):

    -8.5323  -6.8690  -4.5923  -4.2455  -3.6259  -3.6259  -2.9682  -2.0281
    -2.0281  -1.7298  -1.7298  -1.1345  -0.9066  -0.2303  -0.1194  -0.1194
     0.7385   0.7385   0.9540   2.3512   2.5120   2.5120

          k = 0.0000 0.3849 0.0000 ( 12015 PWs)   bands (ev):

    -8.0336  -6.3739  -6.0564  -4.4135  -4.1077  -4.1077  -3.7527  -2.4900
    -2.4900  -1.8188  -0.6637  -0.4428  -0.4428   0.2332   0.2332   1.1285
     1.4093   1.4093   1.7262   2.8138   2.9711   2.9711

          k = 0.0000-0.5774 0.0000 ( 12036 PWs)   bands (ev):

    -7.2063  -7.2063  -5.5532  -5.5532  -4.2688  -4.2688  -2.9382  -2.9381
    -2.6469  -2.6469  -0.1518  -0.1518   0.1171   0.1171   1.3447   1.3447
     1.5988   1.5988   2.7347   2.7347   3.0774   3.0774

          k = 0.1667 0.2887 0.0000 ( 12009 PWs)   bands (ev):

    -8.1996  -6.5387  -5.2409  -5.2409  -3.9166  -3.6068  -3.6068  -2.3692
    -2.3326  -1.0542  -1.0542  -1.0050  -0.8205  -0.4589   0.5465   0.5465
     1.7793   1.9264   1.9810   1.9810   2.2250   2.2250

          k = 0.1667-0.6736 0.0000 ( 12027 PWs)   bands (ev):

    -7.5366  -6.5480  -5.8809  -5.5664  -4.9005  -3.9284  -3.2628  -2.6663
    -2.2939  -1.3441  -1.0900  -0.7875  -0.1942   0.7337   0.7824   0.9881
     1.5804   1.7304   2.1925   2.8725   2.9716   3.2559

          k = 0.3333-0.5774 0.0000 ( 12015 PWs)   bands (ev):

    -6.7123  -6.7123  -6.7123  -5.0633  -5.0633  -5.0633  -2.4538  -2.4538
    -2.4538  -0.9573  -0.9521  -0.8930   0.1633   0.5831   0.5831   0.5831
     0.9237   0.9287   3.3472   3.3514   3.7316   3.8317

     the Fermi energy is     1.7470 ev

!    total energy              =    -473.82143956 Ry
     total all-electron energy =     -5827.534819 Ry
     estimated scf accuracy    <          1.1E-09 Ry
     smearing contrib. (-TS)   =      -0.00084598 Ry
     internal energy E=F+TS    =    -473.82059358 Ry

     The total energy is F=E-TS. E is the sum of the following terms:
     one-electron contribution =    -171.24165676 Ry
     hartree contribution      =      96.60526514 Ry
     xc contribution           =     -30.42530893 Ry
     ewald contribution        =      47.38328825 Ry
     one-center paw contrib.   =    -416.14218129 Ry

     convergence has been achieved in   9 iterations

     negative rho (up, down):  4.985E-07 0.000E+00

     Forces acting on atoms (cartesian axes, Ry/au):

     atom    1 type  1   force =     0.00000003    0.00000002    0.00535778
     atom    2 type  1   force =    -0.00000003    0.00000002    0.00535778
     atom    3 type  1   force =     0.00000000   -0.00000003    0.00535778
     atom    4 type  1   force =     0.00000000    0.00000000    0.00535781
     atom    5 type  1   force =     0.00000000   -0.00000030   -0.00146416
     atom    6 type  1   force =     0.00000000    0.00000000   -0.00146329
     atom    7 type  1   force =     0.00000026    0.00000015   -0.00146416
     atom    8 type  1   force =    -0.00000026    0.00000015   -0.00146416
     atom    9 type  1   force =     0.00000000    0.00000000   -0.00389421
     atom   10 type  1   force =    -0.00000000    0.00000120   -0.00389373
     atom   11 type  1   force =     0.00000104   -0.00000060   -0.00389373
     atom   12 type  1   force =    -0.00000104   -0.00000060   -0.00389373

     Total force =     0.008320     Total SCF correction =     0.000031
     Energy error            =      2.1E-04 Ry
     Gradient error          =      3.9E-03 Ry/Bohr

     number of scf cycles    =   5
     number of bfgs steps    =   4

     energy             old  =    -473.8212267353 Ry
     energy             new  =    -473.8214395636 Ry

     CASE: energy            _new < energy            _old

     new trust radius        =       0.0186906765 bohr
     new conv_thr            =       0.0000000021 Ry


ATOMIC_POSITIONS (angstrom)
Al            1.4318910000        0.8267030000        0.0000000000    0   0   0
Al            4.2956740000        0.8267030000        0.0000000000    0   0   0
Al            2.8637820000        3.3068110000        0.0000000000    0   0   0
Al            5.7275650000        3.3068110000        0.0000000000    0   0   0
Al           -0.0000000000        1.6534060888        2.3354539573
Al            2.8637820000        1.6534060000        2.3354499923
Al            1.4318909231        4.1335139556        2.3354539573
Al            4.2956740769        4.1335139556        2.3354539573
Al            0.0000000000       -0.0000000000        4.6500680722
Al            2.8637820000       -0.0000047914        4.6500619479
Al            1.4318868505        2.4801103957        4.6500619479
Al            4.2956781495        2.4801103957        4.6500619479



     Writing config-only to output data dir ./output/pwscf.save/
     NEW-OLD atomic charge density approx. for the potential

     negative rho (up, down):  2.235E-06 0.000E+00

     total cpu time spent up to now is       29.5 secs

     Self-consistent Calculation

     iteration #  1     ecut=    40.00 Ry     beta= 0.70
     Davidson diagonalization with overlap
     ethr =  1.00E-06,  avg # of iterations =  5.0

     negative rho (up, down):  6.933E-07 0.000E+00

     total cpu time spent up to now is       30.0 secs

     total energy              =    -473.82167678 Ry
     estimated scf accuracy    <       0.00007942 Ry

     iteration #  2     ecut=    40.00 Ry     beta= 0.70
     Davidson diagonalization with overlap
     ethr =  2.21E-07,  avg # of iterations =  4.7

     negative rho (up, down):  6.481E-07 0.000E+00

     total cpu time spent up to now is       30.6 secs

     total energy              =    -473.82157794 Ry
     estimated scf accuracy    <       0.00124170 Ry

     iteration #  3     ecut=    40.00 Ry     beta= 0.70
     Davidson diagonalization with overlap
     ethr =  2.21E-07,  avg # of iterations =  4.9

     negative rho (up, down):  6.230E-07 0.000E+00

     total cpu time spent up to now is       31.1 secs

     total energy              =    -473.82169663 Ry
     estimated scf accuracy    <       0.00033208 Ry

     iteration #  4     ecut=    40.00 Ry     beta= 0.70
     Davidson diagonalization with overlap
     ethr =  2.21E-07,  avg # of iterations =  3.0

     negative rho (up, down):  5.294E-07 0.000E+00

     total cpu time spent up to now is       31.6 secs

     total energy              =    -473.82172422 Ry
     estimated scf accuracy    <       0.00003005 Ry

     iteration #  5     ecut=    40.00 Ry     beta= 0.70
     Davidson diagonalization with overlap
     ethr =  8.35E-08,  avg # of iterations =  1.6

     negative rho (up, down):  4.755E-07 0.000E+00

     total cpu time spent up to now is       32.0 secs

     total energy              =    -473.82172595 Ry
     estimated scf accuracy    <       0.00000302 Ry

     iteration #  6     ecut=    40.00 Ry     beta= 0.70
     Davidson diagonalization with overlap
     ethr =  8.40E-09,  avg # of iterations =  4.1

     negative rho (up, down):  4.732E-07 0.000E+00

     total cpu time spent up to now is       32.5 secs

     total energy              =    -473.82172685 Ry
     estimated scf accuracy    <       0.00000018 Ry

     iteration #  7     ecut=    40.00 Ry     beta= 0.70
     Davidson diagonalization with overlap
     ethr =  4.93E-10,  avg # of iterations =  4.3

     negative rho (up, down):  4.705E-07 0.000E+00

     total cpu time spent up to now is       33.0 secs

     total energy              =    -473.82172691 Ry
     estimated scf accuracy    <       0.00000006 Ry

     iteration #  8     ecut=    40.00 Ry     beta= 0.70
     Davidson diagonalization with overlap
     ethr =  1.72E-10,  avg # of iterations =  2.4

     negative rho (up, down):  4.697E-07 0.000E+00

     total cpu time spent up to now is       33.5 secs

     total energy              =    -473.82172692 Ry
     estimated scf accuracy    <          4.3E-09 Ry

     iteration #  9     ecut=    40.00 Ry     beta= 0.70
     Davidson diagonalization with overlap
     ethr =  1.21E-11,  avg # of iterations =  6.0

     negative rho (up, down):  4.698E-07 0.000E+00

     total cpu time spent up to now is       34.1 secs

     total energy              =    -473.82172692 Ry
     estimated scf accuracy    <          2.3E-09 Ry

     iteration # 10     ecut=    40.00 Ry     beta= 0.70
     Davidson diagonalization with overlap
     ethr =  6.28E-12,  avg # of iterations =  1.9

     negative rho (up, down):  4.697E-07 0.000E+00

     total cpu time spent up to now is       34.5 secs

     End of self-consistent calculation

          k = 0.0000 0.0000 0.0000 ( 11947 PWs)   bands (ev):

    -8.7130  -7.0424  -4.4056  -2.8572  -2.8572  -2.8572  -2.8287  -2.8287
    -2.8287  -1.4757  -1.4756  -1.4756  -1.2896  -0.9459  -0.9459  -0.9459
     1.3441   1.3441   1.3441   1.5790   1.5790   1.5791

          k = 0.0000 0.1925 0.0000 ( 11989 PWs)   bands (ev):

    -8.5464  -6.8770  -4.6066  -4.2407  -3.6403  -3.6403  -2.9767  -2.0368
    -2.0368  -1.7441  -1.7441  -1.1325  -0.9175  -0.2301  -0.1267  -0.1267
     0.7417   0.7417   0.9462   2.3628   2.5158   2.5158

          k = 0.0000 0.3849 0.0000 ( 12015 PWs)   bands (ev):

    -8.0476  -6.3820  -6.0705  -4.4218  -4.1220  -4.1220  -3.7479  -2.4985
    -2.4985  -1.8145  -0.6618  -0.4537  -0.4536   0.2330   0.2330   1.1274
     1.4014   1.4014   1.7146   2.8252   2.9676   2.9676

          k = 0.0000-0.5774 0.0000 ( 12036 PWs)   bands (ev):

    -7.2204  -7.2204  -5.5614  -5.5614  -4.2830  -4.2830  -2.9335  -2.9335
    -2.6554  -2.6554  -0.1493  -0.1493   0.1188   0.1188   1.3307   1.3307
     1.5858   1.5858   2.7262   2.7262   3.0771   3.0771

          k = 0.1667 0.2887 0.0000 ( 12009 PWs)   bands (ev):

    -8.2137  -6.5468  -5.2551  -5.2551  -3.9119  -3.6152  -3.6152  -2.3835
    -2.3471  -1.0508  -1.0508  -1.0146  -0.8186  -0.4663   0.5332   0.5332
     1.7827   1.9285   1.9792   1.9793   2.2193   2.2193

          k = 0.1667-0.6736 0.0000 ( 12027 PWs)   bands (ev):

    -7.5507  -6.5622  -5.8890  -5.5806  -4.9087  -3.9367  -3.2581  -2.6807
    -2.2894  -1.3400  -1.0989  -0.8018  -0.1924   0.7352   0.7749   0.9759
     1.5789   1.7301   2.1809   2.8673   2.9585   3.2665

          k = 0.3333-0.5774 0.0000 ( 12015 PWs)   bands (ev):

    -6.7264  -6.7264  -6.7264  -5.0715  -5.0715  -5.0715  -2.4493  -2.4492
    -2.4492  -0.9729  -0.9651  -0.9078   0.1528   0.5847   0.5847   0.5847
     0.9152   0.9227   3.3499   3.3560   3.7385   3.8355

     the Fermi energy is     1.7447 ev

!    total energy              =    -473.82172692 Ry
     total all-electron energy =     -5827.535106 Ry
     estimated scf accuracy    <          6.3E-10 Ry
     smearing contrib. (-TS)   =      -0.00077830 Ry
     internal energy E=F+TS    =    -473.82094862 Ry

     The total energy is F=E-TS. E is the sum of the following terms:
     one-electron contribution =    -171.91180837 Ry
     hartree contribution      =      96.93746680 Ry
     xc contribution           =     -30.43359688 Ry
     ewald contribution        =      47.73034107 Ry
     one-center paw contrib.   =    -416.14335125 Ry

     convergence has been achieved in  10 iterations

     negative rho (up, down):  4.697E-07 0.000E+00

     Forces acting on atoms (cartesian axes, Ry/au):

     atom    1 type  1   force =    -0.00000020   -0.00000012    0.00534763
     atom    2 type  1   force =     0.00000020   -0.00000012    0.00534763
     atom    3 type  1   force =     0.00000000    0.00000023    0.00534763
     atom    4 type  1   force =    -0.00000000    0.00000000    0.00534774
     atom    5 type  1   force =    -0.00000000   -0.00000032   -0.00216658
     atom    6 type  1   force =     0.00000000    0.00000000   -0.00216534
     atom    7 type  1   force =     0.00000028    0.00000016   -0.00216658
     atom    8 type  1   force =    -0.00000028    0.00000016   -0.00216658
     atom    9 type  1   force =     0.00000000    0.00000000   -0.00318188
     atom   10 type  1   force =     0.00000000    0.00000166   -0.00318123
     atom   11 type  1   force =     0.00000143   -0.00000083   -0.00318123
     atom   12 type  1   force =    -0.00000143   -0.00000083   -0.00318123

     Total force =     0.007698     Total SCF correction =     0.000025
     Energy error            =      2.9E-04 Ry
     Gradient error          =      3.2E-03 Ry/Bohr

     number of scf cycles    =   6
     number of bfgs steps    =   5

     energy             old  =    -473.8214395636 Ry
     energy             new  =    -473.8217269240 Ry

     CASE: energy            _new < energy            _old

     new trust radius        =       0.0280360147 bohr
     new conv_thr            =       0.0000000029 Ry


ATOMIC_POSITIONS (angstrom)
Al            1.4318910000        0.8267030000        0.0000000000    0   0   0
Al            4.2956740000        0.8267030000        0.0000000000    0   0   0
Al            2.8637820000        3.3068110000        0.0000000000    0   0   0
Al            5.7275650000        3.3068110000        0.0000000000    0   0   0
Al           -0.0000000000        1.6534059039        2.3323706305
Al            2.8637820000        1.6534060000        2.3323653995
Al            1.4318910833        4.1335140481        2.3323706305
Al            4.2956739167        4.1335140481        2.3323706305
Al            0.0000000000       -0.0000000000        4.6352349722
Al            2.8637820000       -0.0000064912        4.6352259279
Al            1.4318853785        2.4801112456        4.6352259279
Al            4.2956796215        2.4801112456        4.6352259279



     Writing config-only to output data dir ./output/pwscf.save/
     NEW-OLD atomic charge density approx. for the potential

     negative rho (up, down):  4.484E-06 0.000E+00

     total cpu time spent up to now is       35.1 secs

     Self-consistent Calculation

     iteration #  1     ecut=    40.00 Ry     beta= 0.70
     Davidson diagonalization with overlap
     ethr =  1.00E-06,  avg # of iterations =  5.7

     negative rho (up, down):  8.821E-07 0.000E+00

     total cpu time spent up to now is       35.7 secs

     total energy              =    -473.82198539 Ry
     estimated scf accuracy    <       0.00015484 Ry

     iteration #  2     ecut=    40.00 Ry     beta= 0.70
     Davidson diagonalization with overlap
     ethr =  4.30E-07,  avg # of iterations =  4.6

     negative rho (up, down):  7.523E-07 0.000E+00

     total cpu time spent up to now is       36.2 secs

     total energy              =    -473.82185475 Ry
     estimated scf accuracy    <       0.00169148 Ry

     iteration #  3     ecut=    40.00 Ry     beta= 0.70
     Davidson diagonalization with overlap
     ethr =  4.30E-07,  avg # of iterations =  3.6

     negative rho (up, down):  5.752E-07 0.000E+00

     total cpu time spent up to now is       36.8 secs

     total energy              =    -473.82207418 Ry
     estimated scf accuracy    <       0.00001559 Ry

     iteration #  4     ecut=    40.00 Ry     beta= 0.70
     Davidson diagonalization with overlap
     ethr =  4.33E-08,  avg # of iterations =  3.7

     negative rho (up, down):  4.922E-07 0.000E+00

     total cpu time spent up to now is       37.3 secs

     total energy              =    -473.82207724 Ry
     estimated scf accuracy    <       0.00000575 Ry

     iteration #  5     ecut=    40.00 Ry     beta= 0.70
     Davidson diagonalization with overlap
     ethr =  1.60E-08,  avg # of iterations =  5.3

     negative rho (up, down):  4.615E-07 0.000E+00

     total cpu time spent up to now is       37.8 secs

     total energy              =    -473.82207457 Ry
     estimated scf accuracy    <       0.00006675 Ry

     iteration #  6     ecut=    40.00 Ry     beta= 0.70
     Davidson diagonalization with overlap
     ethr =  1.60E-08,  avg # of iterations =  4.0

     negative rho (up, down):  4.502E-07 0.000E+00

     total cpu time spent up to now is       38.3 secs

     total energy              =    -473.82207844 Ry
     estimated scf accuracy    <       0.00000013 Ry

     iteration #  7     ecut=    40.00 Ry     beta= 0.70
     Davidson diagonalization with overlap
     ethr =  3.63E-10,  avg # of iterations =  6.4

     negative rho (up, down):  4.479E-07 0.000E+00

     total cpu time spent up to now is       38.9 secs

     total energy              =    -473.82207854 Ry
     estimated scf accuracy    <       0.00000021 Ry

     iteration #  8     ecut=    40.00 Ry     beta= 0.70
     Davidson diagonalization with overlap
     ethr =  3.63E-10,  avg # of iterations =  1.6

     negative rho (up, down):  4.468E-07 0.000E+00

     total cpu time spent up to now is       39.3 secs

     total energy              =    -473.82207855 Ry
     estimated scf accuracy    <       0.00000002 Ry

     iteration #  9     ecut=    40.00 Ry     beta= 0.70
     Davidson diagonalization with overlap
     ethr =  4.19E-11,  avg # of iterations =  5.0

     negative rho (up, down):  4.468E-07 0.000E+00

     total cpu time spent up to now is       39.8 secs

     total energy              =    -473.82207855 Ry
     estimated scf accuracy    <          7.0E-09 Ry

     iteration # 10     ecut=    40.00 Ry     beta= 0.70
     Davidson diagonalization with overlap
     ethr =  1.95E-11,  avg # of iterations =  1.6

     negative rho (up, down):  4.468E-07 0.000E+00

     total cpu time spent up to now is       40.3 secs

     End of self-consistent calculation

          k = 0.0000 0.0000 0.0000 ( 11947 PWs)   bands (ev):

    -8.7353  -7.0546  -4.3983  -2.8801  -2.8801  -2.8800  -2.8515  -2.8515
    -2.8515  -1.4901  -1.4901  -1.4900  -1.2865  -0.9570  -0.9570  -0.9570
     1.3501   1.3501   1.3501   1.5865   1.5865   1.5865

          k = 0.0000 0.1925 0.0000 ( 11989 PWs)   bands (ev):

    -8.5687  -6.8892  -4.6292  -4.2334  -3.6630  -3.6630  -2.9895  -2.0500
    -2.0500  -1.7668  -1.7668  -1.1294  -0.9352  -0.2296  -0.1377  -0.1377
     0.7469   0.7469   0.9346   2.3805   2.5217   2.5217

          k = 0.0000 0.3849 0.0000 ( 12015 PWs)   bands (ev):

    -8.0700  -6.3943  -6.0931  -4.4343  -4.1447  -4.1447  -3.7407  -2.5115
    -2.5115  -1.8079  -0.6589  -0.4712  -0.4712   0.2329   0.2329   1.1252
     1.3895   1.3895   1.6965   2.8424   2.9617   2.9617

          k = 0.0000-0.5774 0.0000 ( 12036 PWs)   bands (ev):

    -7.2428  -7.2428  -5.5737  -5.5737  -4.3057  -4.3057  -2.9265  -2.9265
    -2.6683  -2.6683  -0.1457  -0.1457   0.1215   0.1215   1.3084   1.3084
     1.5655   1.5655   2.7133   2.7133   3.0768   3.0768

          k = 0.1667 0.2887 0.0000 ( 12009 PWs)   bands (ev):

    -8.2361  -6.5590  -5.2777  -5.2777  -3.9046  -3.6279  -3.6279  -2.4063
    -2.3701  -1.0457  -1.0457  -1.0292  -0.8156  -0.4774   0.5121   0.5121
     1.7881   1.9314   1.9764   1.9764   2.2110   2.2110

          k = 0.1667-0.6736 0.0000 ( 12027 PWs)   bands (ev):

    -7.5731  -6.5846  -5.9013  -5.6032  -4.9212  -3.9493  -3.2510  -2.7036
    -2.2825  -1.3336  -1.1125  -0.8246  -0.1897   0.7374   0.7631   0.9565
     1.5763   1.7298   2.1628   2.8593   2.9377   3.2824

          k = 0.3333-0.5774 0.0000 ( 12015 PWs)   bands (ev):

    -6.7489  -6.7489  -6.7489  -5.0840  -5.0840  -5.0840  -2.4423  -2.4423
    -2.4423  -0.9973  -0.9864  -0.9313   0.1366   0.5872   0.5872   0.5872
     0.9027   0.9133   3.3544   3.3631   3.7486   3.8406

     the Fermi energy is     1.7422 ev

!    total energy              =    -473.82207855 Ry
     total all-electron energy =     -5827.535458 Ry
     estimated scf accuracy    <          4.0E-10 Ry
     smearing contrib. (-TS)   =      -0.00067376 Ry
     internal energy E=F+TS    =    -473.82140479 Ry

     The total energy is F=E-TS. E is the sum of the following terms:
     one-electron contribution =    -172.91623063 Ry
     hartree contribution      =      97.43435361 Ry
     xc contribution           =     -30.44637775 Ry
     ewald contribution        =      48.25220408 Ry
     one-center paw contrib.   =    -416.14535410 Ry

     convergence has been achieved in  10 iterations

     negative rho (up, down):  4.468E-07 0.000E+00

     Forces acting on atoms (cartesian axes, Ry/au):

     atom    1 type  1   force =    -0.00000008   -0.00000005    0.00506414
     atom    2 type  1   force =     0.00000008   -0.00000005    0.00506414
     atom    3 type  1   force =    -0.00000000    0.00000009    0.00506414
     atom    4 type  1   force =     0.00000000   -0.00000000    0.00506428
     atom    5 type  1   force =     0.00000000   -0.00000049   -0.00311992
     atom    6 type  1   force =     0.00000000    0.00000000   -0.00311837
     atom    7 type  1   force =     0.00000042    0.00000024   -0.00311992
     atom    8 type  1   force =    -0.00000042    0.00000024   -0.00311992
     atom    9 type  1   force =     0.00000000    0.00000000   -0.00194549
     atom   10 type  1   force =    -0.00000000    0.00000228   -0.00194436
     atom   11 type  1   force =     0.00000198   -0.00000114   -0.00194436
     atom   12 type  1   force =    -0.00000198   -0.00000114   -0.00194436

     Total force =     0.007352     Total SCF correction =     0.000022
     Energy error            =      3.5E-04 Ry
     Gradient error          =      3.1E-03 Ry/Bohr

     number of scf cycles    =   7
     number of bfgs steps    =   6

     energy             old  =    -473.8217269240 Ry
     energy             new  =    -473.8220785505 Ry

     CASE: energy            _new < energy            _old

     new trust radius        =       0.0420540220 bohr
     new conv_thr            =       0.0000000035 Ry


ATOMIC_POSITIONS (angstrom)
Al            1.4318910000        0.8267030000        0.0000000000    0   0   0
Al            4.2956740000        0.8267030000        0.0000000000    0   0   0
Al            2.8637820000        3.3068110000        0.0000000000    0   0   0
Al            5.7275650000        3.3068110000        0.0000000000    0   0   0
Al           -0.0000000000        1.6534053876        2.3264280937
Al            2.8637820000        1.6534060000        2.3264214588
Al            1.4318915304        4.1335143062        2.3264280937
Al            4.2956734696        4.1335143062        2.3264280937
Al            0.0000000000       -0.0000000000        4.6129850099
Al            2.8637820000       -0.0000083565        4.6129718979
Al            1.4318837631        2.4801121782        4.6129718979
Al            4.2956812369        2.4801121782        4.6129718979



     Writing config-only to output data dir ./output/pwscf.save/
     NEW-OLD atomic charge density approx. for the potential

     negative rho (up, down):  1.027E-05 0.000E+00

     total cpu time spent up to now is       40.8 secs

     Self-consistent Calculation

     iteration #  1     ecut=    40.00 Ry     beta= 0.70
     Davidson diagonalization with overlap
     ethr =  1.00E-06,  avg # of iterations =  6.9

     negative rho (up, down):  1.312E-06 0.000E+00

     total cpu time spent up to now is       41.5 secs

     total energy              =    -473.82222139 Ry
     estimated scf accuracy    <       0.00029130 Ry

     iteration #  2     ecut=    40.00 Ry     beta= 0.70
     Davidson diagonalization with overlap
     ethr =  8.09E-07,  avg # of iterations =  4.7

     negative rho (up, down):  1.084E-06 0.000E+00

     total cpu time spent up to now is       42.0 secs

     total energy              =    -473.82189993 Ry
     estimated scf accuracy    <       0.00402735 Ry

     iteration #  3     ecut=    40.00 Ry     beta= 0.70
     Davidson diagonalization with overlap
     ethr =  8.09E-07,  avg # of iterations =  5.7

     negative rho (up, down):  9.522E-07 0.000E+00

     total cpu time spent up to now is       42.5 secs

     total energy              =    -473.82225362 Ry
     estimated scf accuracy    <       0.00191837 Ry

     iteration #  4     ecut=    40.00 Ry     beta= 0.70
     Davidson diagonalization with overlap
     ethr =  8.09E-07,  avg # of iterations =  3.6

     negative rho (up, down):  6.125E-07 0.000E+00

     total cpu time spent up to now is       43.0 secs

     total energy              =    -473.82238511 Ry
     estimated scf accuracy    <       0.00004479 Ry

     iteration #  5     ecut=    40.00 Ry     beta= 0.70
     Davidson diagonalization with overlap
     ethr =  1.24E-07,  avg # of iterations =  2.7

     negative rho (up, down):  4.294E-07 0.000E+00

     total cpu time spent up to now is       43.5 secs

     total energy              =    -473.82239352 Ry
     estimated scf accuracy    <       0.00000312 Ry

     iteration #  6     ecut=    40.00 Ry     beta= 0.70
     Davidson diagonalization with overlap
     ethr =  8.67E-09,  avg # of iterations =  4.6

     negative rho (up, down):  4.155E-07 0.000E+00

     total cpu time spent up to now is       44.0 secs

     total energy              =    -473.82239463 Ry
     estimated scf accuracy    <       0.00000115 Ry

     iteration #  7     ecut=    40.00 Ry     beta= 0.70
     Davidson diagonalization with overlap
     ethr =  3.21E-09,  avg # of iterations =  2.1

     negative rho (up, down):  4.146E-07 0.000E+00

     total cpu time spent up to now is       44.5 secs

     total energy              =    -473.82239476 Ry
     estimated scf accuracy    <       0.00000013 Ry

     iteration #  8     ecut=    40.00 Ry     beta= 0.70
     Davidson diagonalization with overlap
     ethr =  3.61E-10,  avg # of iterations =  4.4

     negative rho (up, down):  4.143E-07 0.000E+00

     total cpu time spent up to now is       44.9 secs

     total energy              =    -473.82239479 Ry
     estimated scf accuracy    <          4.4E-09 Ry

     iteration #  9     ecut=    40.00 Ry     beta= 0.70
     Davidson diagonalization with overlap
     ethr =  1.23E-11,  avg # of iterations =  7.0

     negative rho (up, down):  4.143E-07 0.000E+00

     total cpu time spent up to now is       45.6 secs

     total energy              =    -473.82239479 Ry
     estimated scf accuracy    <          7.5E-09 Ry

     iteration # 10     ecut=    40.00 Ry     beta= 0.70
     Davidson diagonalization with overlap
     ethr =  1.23E-11,  avg # of iterations =  1.3

     negative rho (up, down):  4.145E-07 0.000E+00

     total cpu time spent up to now is       46.0 secs

     End of self-consistent calculation

          k = 0.0000 0.0000 0.0000 ( 11947 PWs)   bands (ev):

    -8.7714  -7.0729  -4.3867  -2.9171  -2.9171  -2.9171  -2.8881  -2.8881
    -2.8881  -1.5120  -1.5120  -1.5120  -1.2815  -0.9737  -0.9737  -0.9737
     1.3600   1.3600   1.3600   1.5978   1.5978   1.5979

          k = 0.0000 0.1925 0.0000 ( 11989 PWs)   bands (ev):

    -8.6048  -6.9075  -4.6658  -4.2219  -3.6997  -3.6997  -3.0090  -2.0701
    -2.0701  -1.8034  -1.8034  -1.1245  -0.9645  -0.2282  -0.1544  -0.1544
     0.7551   0.7551   0.9171   2.4075   2.5308   2.5308

          k = 0.0000 0.3849 0.0000 ( 12015 PWs)   bands (ev):

    -8.1061  -6.4128  -6.1294  -4.4533  -4.1813  -4.1813  -3.7293  -2.5311
    -2.5311  -1.7977  -0.6542  -0.5003  -0.5003   0.2333   0.2333   1.1211
     1.3716   1.3716   1.6681   2.8686   2.9517   2.9517

          k = 0.0000-0.5774 0.0000 ( 12036 PWs)   bands (ev):

    -7.2790  -7.2790  -5.5924  -5.5924  -4.3424  -4.3424  -2.9154  -2.9154
    -2.6879  -2.6879  -0.1403  -0.1403   0.1257   0.1257   1.2721   1.2721
     1.5333   1.5333   2.6935   2.6935   3.0769   3.0769

          k = 0.1667 0.2887 0.0000 ( 12009 PWs)   bands (ev):

    -8.2721  -6.5775  -5.3142  -5.3142  -3.8932  -3.6471  -3.6471  -2.4433
    -2.4068  -1.0514  -1.0378  -1.0378  -0.8108  -0.4941   0.4783   0.4783
     1.7971   1.9352   1.9716   1.9716   2.1992   2.1992

          k = 0.1667-0.6736 0.0000 ( 12027 PWs)   bands (ev):

    -7.6093  -6.6209  -5.9199  -5.6396  -4.9401  -3.9684  -3.2398  -2.7405
    -2.2718  -1.3237  -1.1331  -0.8614  -0.1852   0.7410   0.7447   0.9256
     1.5713   1.7298   2.1345   2.8473   2.9040   3.3066

          k = 0.3333-0.5774 0.0000 ( 12015 PWs)   bands (ev):

    -6.7851  -6.7851  -6.7851  -5.1028  -5.1028  -5.1028  -2.4315  -2.4315
    -2.4314  -1.0363  -1.0215  -0.9685   0.1118   0.5911   0.5911   0.5911
     0.8847   0.8986   3.3626   3.3740   3.7638   3.8467

     the Fermi energy is     1.7414 ev

!    total energy              =    -473.82239479 Ry
     total all-electron energy =     -5827.535774 Ry
     estimated scf accuracy    <          1.8E-09 Ry
     smearing contrib. (-TS)   =      -0.00057553 Ry
     internal energy E=F+TS    =    -473.82181927 Ry

     The total energy is F=E-TS. E is the sum of the following terms:
     one-electron contribution =    -174.42491541 Ry
     hartree contribution      =      98.18065254 Ry
     xc contribution           =     -30.46639725 Ry
     ewald contribution        =      49.03775779 Ry
     one-center paw contrib.   =    -416.14891693 Ry

     convergence has been achieved in  10 iterations

     negative rho (up, down):  4.145E-07 0.000E+00

     Forces acting on atoms (cartesian axes, Ry/au):

     atom    1 type  1   force =    -0.00000006   -0.00000004    0.00410248
     atom    2 type  1   force =     0.00000006   -0.00000004    0.00410248
     atom    3 type  1   force =     0.00000000    0.00000007    0.00410248
     atom    4 type  1   force =     0.00000000    0.00000000    0.00410263
     atom    5 type  1   force =     0.00000000   -0.00000044   -0.00436189
     atom    6 type  1   force =     0.00000000    0.00000000   -0.00435979
     atom    7 type  1   force =     0.00000038    0.00000022   -0.00436189
     atom    8 type  1   force =    -0.00000038    0.00000022   -0.00436189
     atom    9 type  1   force =     0.00000000    0.00000000    0.00025775
     atom   10 type  1   force =    -0.00000000    0.00000309    0.00025921
     atom   11 type  1   force =     0.00000268   -0.00000155    0.00025921
     atom   12 type  1   force =    -0.00000268   -0.00000155    0.00025921

     Total force =     0.008738     Total SCF correction =     0.000059
     Energy error            =      3.2E-04 Ry
     Gradient error          =      4.4E-03 Ry/Bohr

     number of scf cycles    =   8
     number of bfgs steps    =   7

     energy             old  =    -473.8220785505 Ry
     energy             new  =    -473.8223947922 Ry

     CASE: energy            _new < energy            _old

     new trust radius        =       0.0230096625 bohr
     new conv_thr            =       0.0000000032 Ry


ATOMIC_POSITIONS (angstrom)
Al            1.4318910000        0.8267030000        0.0000000000    0   0   0
Al            4.2956740000        0.8267030000        0.0000000000    0   0   0
Al            2.8637820000        3.3068110000        0.0000000000    0   0   0
Al            5.7275650000        3.3068110000        0.0000000000    0   0   0
Al           -0.0000000000        1.6534049308        2.3210569109
Al            2.8637820000        1.6534060000        2.3210504462
Al            1.4318919260        4.1335145346        2.3210569109
Al            4.2956730740        4.1335145346        2.3210569109
Al            0.0000000000       -0.0000000000        4.6008107934
Al            2.8637820000       -0.0000082663        4.6007957089
Al            1.4318838412        2.4801121331        4.6007957089
Al            4.2956811588        2.4801121331        4.6007957089



     Writing config-only to output data dir ./output/pwscf.save/
     NEW-OLD atomic charge density approx. for the potential

     negative rho (up, down):  2.967E-06 0.000E+00

     total cpu time spent up to now is       46.6 secs

     Self-consistent Calculation

     iteration #  1     ecut=    40.00 Ry     beta= 0.70
     Davidson diagonalization with overlap
     ethr =  1.00E-06,  avg # of iterations =  5.6

     negative rho (up, down):  6.748E-07 0.000E+00

     total cpu time spent up to now is       47.2 secs

     total energy              =    -473.82246620 Ry
     estimated scf accuracy    <       0.00005798 Ry

     iteration #  2     ecut=    40.00 Ry     beta= 0.70
     Davidson diagonalization with overlap
     ethr =  1.61E-07,  avg # of iterations =  6.1

     negative rho (up, down):  6.345E-07 0.000E+00

     total cpu time spent up to now is       47.7 secs

     total energy              =    -473.82235103 Ry
     estimated scf accuracy    <       0.00152705 Ry

     iteration #  3     ecut=    40.00 Ry     beta= 0.70
     Davidson diagonalization with overlap
     ethr =  1.61E-07,  avg # of iterations =  6.6

     negative rho (up, down):  5.796E-07 0.000E+00

     total cpu time spent up to now is       48.3 secs

     total energy              =    -473.82247229 Ry
     estimated scf accuracy    <       0.00043340 Ry

     iteration #  4     ecut=    40.00 Ry     beta= 0.70
     Davidson diagonalization with overlap
     ethr =  1.61E-07,  avg # of iterations =  3.0

     negative rho (up, down):  4.408E-07 0.000E+00

     total cpu time spent up to now is       48.8 secs

     total energy              =    -473.82250078 Ry
     estimated scf accuracy    <       0.00001331 Ry

     iteration #  5     ecut=    40.00 Ry     beta= 0.70
     Davidson diagonalization with overlap
     ethr =  3.70E-08,  avg # of iterations =  3.3

     negative rho (up, down):  3.884E-07 0.000E+00

     total cpu time spent up to now is       49.2 secs

     total energy              =    -473.82250240 Ry
     estimated scf accuracy    <       0.00000136 Ry

     iteration #  6     ecut=    40.00 Ry     beta= 0.70
     Davidson diagonalization with overlap
     ethr =  3.77E-09,  avg # of iterations =  4.9

     negative rho (up, down):  3.870E-07 0.000E+00

     total cpu time spent up to now is       49.8 secs

     total energy              =    -473.82250279 Ry
     estimated scf accuracy    <       0.00000129 Ry

     iteration #  7     ecut=    40.00 Ry     beta= 0.70
     Davidson diagonalization with overlap
     ethr =  3.59E-09,  avg # of iterations =  1.1

     negative rho (up, down):  3.867E-07 0.000E+00

     total cpu time spent up to now is       50.3 secs

[...]
     NEW-OLD atomic charge density approx. for the potential

     negative rho (up, down):  4.375E-07 0.000E+00

     total cpu time spent up to now is       64.0 secs

     Self-consistent Calculation

     iteration #  1     ecut=    40.00 Ry     beta= 0.70
     Davidson diagonalization with overlap
     ethr =  1.00E-06,  avg # of iterations =  5.4

     negative rho (up, down):  3.729E-07 0.000E+00

     total cpu time spent up to now is       64.6 secs

     total energy              =    -473.82266987 Ry
     estimated scf accuracy    <       0.00030569 Ry

     iteration #  2     ecut=    40.00 Ry     beta= 0.70
     Davidson diagonalization with overlap
     ethr =  8.49E-07,  avg # of iterations =  6.7

     negative rho (up, down):  3.711E-07 0.000E+00

     total cpu time spent up to now is       65.2 secs

     total energy              =    -473.82129615 Ry
     estimated scf accuracy    <       0.02756439 Ry

     iteration #  3     ecut=    40.00 Ry     beta= 0.70
     Davidson diagonalization with overlap
     ethr =  8.49E-07,  avg # of iterations =  6.9

     negative rho (up, down):  3.631E-07 0.000E+00

     total cpu time spent up to now is       65.7 secs

     total energy              =    -473.82289116 Ry
     estimated scf accuracy    <       0.00004159 Ry

     iteration #  4     ecut=    40.00 Ry     beta= 0.70
     Davidson diagonalization with overlap
     ethr =  1.16E-07,  avg # of iterations =  2.7

     negative rho (up, down):  3.538E-07 0.000E+00

     total cpu time spent up to now is       66.3 secs

     total energy              =    -473.82290067 Ry
     estimated scf accuracy    <       0.00000610 Ry

     iteration #  5     ecut=    40.00 Ry     beta= 0.70
     Davidson diagonalization with overlap
     ethr =  1.70E-08,  avg # of iterations =  4.1

     negative rho (up, down):  3.493E-07 0.000E+00

     total cpu time spent up to now is       66.8 secs

     total energy              =    -473.82290132 Ry
     estimated scf accuracy    <       0.00000404 Ry

     iteration #  6     ecut=    40.00 Ry     beta= 0.70
     Davidson diagonalization with overlap
     ethr =  1.12E-08,  avg # of iterations =  2.4

     negative rho (up, down):  3.498E-07 0.000E+00

     total cpu time spent up to now is       67.3 secs

     total energy              =    -473.82290165 Ry
     estimated scf accuracy    <       0.00000034 Ry

     iteration #  7     ecut=    40.00 Ry     beta= 0.70
     Davidson diagonalization with overlap
     ethr =  9.40E-10,  avg # of iterations =  4.4

     negative rho (up, down):  3.497E-07 0.000E+00

     total cpu time spent up to now is       67.8 secs

     total energy              =    -473.82290179 Ry
     estimated scf accuracy    <       0.00000015 Ry

     iteration #  8     ecut=    40.00 Ry     beta= 0.70
     Davidson diagonalization with overlap
     ethr =  4.22E-10,  avg # of iterations =  2.1

     negative rho (up, down):  3.495E-07 0.000E+00

     total cpu time spent up to now is       68.3 secs

     total energy              =    -473.82290182 Ry
     estimated scf accuracy    <          1.7E-09 Ry

     iteration #  9     ecut=    40.00 Ry     beta= 0.70
     Davidson diagonalization with overlap
     ethr =  4.82E-12,  avg # of iterations =  7.6

     negative rho (up, down):  3.494E-07 0.000E+00

     total cpu time spent up to now is       68.9 secs

     total energy              =    -473.82290182 Ry
     estimated scf accuracy    <       0.00000001 Ry

     iteration # 10     ecut=    40.00 Ry     beta= 0.70
     Davidson diagonalization with overlap
     ethr =  4.82E-12,  avg # of iterations =  4.0

     negative rho (up, down):  3.494E-07 0.000E+00

     total cpu time spent up to now is       69.4 secs

     End of self-consistent calculation

          k = 0.0000 0.0000 0.0000 ( 11947 PWs)   bands (ev):

    -8.8191  -7.0983  -4.3710  -2.9652  -2.9652  -2.9652  -2.9370  -2.9370
    -2.9370  -1.5428  -1.5428  -1.5428  -1.2748  -0.9966  -0.9966  -0.9966
     1.3736   1.3736   1.3736   1.6134   1.6134   1.6134

          k = 0.0000 0.1925 0.0000 ( 11989 PWs)   bands (ev):

    -8.6525  -6.9330  -4.7140  -4.2062  -3.7481  -3.7481  -3.0360  -2.0979
    -2.0979  -1.8519  -1.8519  -1.1179  -1.0041  -0.2252  -0.1779  -0.1779
     0.7667   0.7667   0.8931   2.4446   2.5435   2.5435

          k = 0.0000 0.3849 0.0000 ( 12015 PWs)   bands (ev):

    -8.1539  -6.4383  -6.1774  -4.4796  -4.2296  -4.2296  -3.7138  -2.5584
    -2.5584  -1.7836  -0.6478  -0.5396  -0.5396   0.2349   0.2349   1.1141
     1.3470   1.3470   1.6326   2.9046   2.9368   2.9368

          k = 0.0000-0.5774 0.0000 ( 12036 PWs)   bands (ev):

    -7.3269  -7.3269  -5.6183  -5.6183  -4.3907  -4.3907  -2.9002  -2.9002
    -2.7150  -2.7150  -0.1330  -0.1330   0.1315   0.1315   1.2238   1.2238
     1.4921   1.4921   2.6653   2.6653   3.0775   3.0775

          k = 0.1667 0.2887 0.0000 ( 12009 PWs)   bands (ev):

    -8.3199  -6.6030  -5.3623  -5.3623  -3.8776  -3.6738  -3.6738  -2.4917
    -2.4556  -1.0826  -1.0271  -1.0271  -0.8044  -0.5171   0.4339   0.4339
     1.8095   1.9399   1.9636   1.9636   2.1844   2.1844

          k = 0.1667-0.6736 0.0000 ( 12027 PWs)   bands (ev):

    -7.6571  -6.6688  -5.9456  -5.6877  -4.9662  -3.9949  -3.2244  -2.7891
    -2.2571  -1.3101  -1.1615  -0.9101  -0.1791   0.7187   0.7459   0.8847
     1.5632   1.7302   2.0991   2.8309   2.8597   3.3396

          k = 0.3333-0.5774 0.0000 ( 12015 PWs)   bands (ev):

    -6.8330  -6.8330  -6.8330  -5.1288  -5.1288  -5.1288  -2.4166  -2.4166
    -2.4166  -1.0786  -1.0774  -1.0165   0.0765   0.5965   0.5965   0.5965
     0.8685   0.8696   3.3811   3.3820   3.7845   3.8536

     the Fermi energy is     1.7422 ev

!    total energy              =    -473.82290182 Ry
     total all-electron energy =     -5827.536281 Ry
     estimated scf accuracy    <          3.3E-10 Ry
     smearing contrib. (-TS)   =      -0.00053596 Ry
     internal energy E=F+TS    =    -473.82236586 Ry

     The total energy is F=E-TS. E is the sum of the following terms:
     one-electron contribution =    -176.44175590 Ry
     hartree contribution      =      99.17844893 Ry
     xc contribution           =     -30.49330315 Ry
     ewald contribution        =      50.08812714 Ry
     one-center paw contrib.   =    -416.15388289 Ry

     convergence has been achieved in  10 iterations

     negative rho (up, down):  3.494E-07 0.000E+00

     Forces acting on atoms (cartesian axes, Ry/au):

     atom    1 type  1   force =    -0.00000001   -0.00000000   -0.00021964
     atom    2 type  1   force =     0.00000001   -0.00000000   -0.00021964
     atom    3 type  1   force =    -0.00000000    0.00000001   -0.00021964
     atom    4 type  1   force =     0.00000000   -0.00000000   -0.00021930
     atom    5 type  1   force =     0.00000000    0.00000046   -0.00037193
     atom    6 type  1   force =     0.00000000   -0.00000000   -0.00037262
     atom    7 type  1   force =    -0.00000040   -0.00000023   -0.00037193
     atom    8 type  1   force =     0.00000040   -0.00000023   -0.00037193
     atom    9 type  1   force =     0.00000000   -0.00000000    0.00059045
     atom   10 type  1   force =    -0.00000000   -0.00000034    0.00059206
     atom   11 type  1   force =    -0.00000029    0.00000017    0.00059206
     atom   12 type  1   force =     0.00000029    0.00000017    0.00059206

     Total force =     0.001398     Total SCF correction =     0.000020
     Energy error            =      1.0E-04 Ry
     Gradient error          =      5.9E-04 Ry/Bohr

     number of scf cycles    =  12
     number of bfgs steps    =  11

     energy             old  =    -473.8227983355 Ry
     energy             new  =    -473.8229018190 Ry

     CASE: energy            _new < energy            _old

     new trust radius        =       0.0060473273 bohr
     new conv_thr            =       0.0000000010 Ry


ATOMIC_POSITIONS (angstrom)
Al            1.4318910000        0.8267030000        0.0000000000    0   0   0
Al            4.2956740000        0.8267030000        0.0000000000    0   0   0
Al            2.8637820000        3.3068110000        0.0000000000    0   0   0
Al            5.7275650000        3.3068110000        0.0000000000    0   0   0
Al           -0.0000000000        1.6534035799        2.2933739319
Al            2.8637820000        1.6534060000        2.2933749013
Al            1.4318930959        4.1335152101        2.2933739319
Al            4.2956719041        4.1335152101        2.2933739319
Al            0.0000000000       -0.0000000000        4.5865014473
Al            2.8637820000        0.0000009425        4.5864904057
Al            1.4318918162        2.4801075287        4.5864904057
Al            4.2956731838        2.4801075287        4.5864904057



     Writing config-only to output data dir ./output/pwscf.save/
     NEW-OLD atomic charge density approx. for the potential

     negative rho (up, down):  2.492E-07 0.000E+00

     total cpu time spent up to now is       70.0 secs

     Self-consistent Calculation

     iteration #  1     ecut=    40.00 Ry     beta= 0.70
     Davidson diagonalization with overlap
     ethr =  1.00E-06,  avg # of iterations =  2.0

     Threshold (ethr) on eigenvalues was too large:
     Diagonalizing with lowered threshold

     Davidson diagonalization with overlap
     ethr =  7.52E-09,  avg # of iterations =  7.1

     negative rho (up, down):  3.091E-07 0.000E+00

     total cpu time spent up to now is       70.9 secs

     total energy              =    -473.82290621 Ry
     estimated scf accuracy    <       0.00000770 Ry

     iteration #  2     ecut=    40.00 Ry     beta= 0.70
     Davidson diagonalization with overlap
     ethr =  2.14E-08,  avg # of iterations =  4.6

     negative rho (up, down):  3.118E-07 0.000E+00

     total cpu time spent up to now is       71.5 secs

     total energy              =    -473.82289845 Ry
     estimated scf accuracy    <       0.00009602 Ry

     iteration #  3     ecut=    40.00 Ry     beta= 0.70
     Davidson diagonalization with overlap
     ethr =  2.14E-08,  avg # of iterations =  5.6

     negative rho (up, down):  3.149E-07 0.000E+00

     total cpu time spent up to now is       72.0 secs

     total energy              =    -473.82290616 Ry
     estimated scf accuracy    <       0.00005664 Ry

     iteration #  4     ecut=    40.00 Ry     beta= 0.70
     Davidson diagonalization with overlap
     ethr =  2.14E-08,  avg # of iterations =  3.9

     negative rho (up, down):  3.241E-07 0.000E+00

     total cpu time spent up to now is       72.5 secs

     total energy              =    -473.82291033 Ry
     estimated scf accuracy    <       0.00000247 Ry

     iteration #  5     ecut=    40.00 Ry     beta= 0.70
     Davidson diagonalization with overlap
     ethr =  6.85E-09,  avg # of iterations =  2.0

     negative rho (up, down):  3.409E-07 0.000E+00

     total cpu time spent up to now is       72.9 secs

     total energy              =    -473.82291065 Ry
     estimated scf accuracy    <       0.00000008 Ry

     iteration #  6     ecut=    40.00 Ry     beta= 0.70
     Davidson diagonalization with overlap
     ethr =  2.09E-10,  avg # of iterations =  5.3

     negative rho (up, down):  3.424E-07 0.000E+00

     total cpu time spent up to now is       73.4 secs

     total energy              =    -473.82291070 Ry
     estimated scf accuracy    <       0.00000003 Ry

     iteration #  7     ecut=    40.00 Ry     beta= 0.70
     Davidson diagonalization with overlap
     ethr =  8.93E-11,  avg # of iterations =  1.6

     negative rho (up, down):  3.438E-07 0.000E+00

     total cpu time spent up to now is       73.9 secs

     total energy              =    -473.82291070 Ry
     estimated scf accuracy    <          9.2E-09 Ry

     iteration #  8     ecut=    40.00 Ry     beta= 0.70
     Davidson diagonalization with overlap
     ethr =  2.57E-11,  avg # of iterations =  5.1

     negative rho (up, down):  3.441E-07 0.000E+00

     total cpu time spent up to now is       74.4 secs

     total energy              =    -473.82291070 Ry
     estimated scf accuracy    <          4.7E-09 Ry

     iteration #  9     ecut=    40.00 Ry     beta= 0.70
     Davidson diagonalization with overlap
     ethr =  1.30E-11,  avg # of iterations =  2.1

     negative rho (up, down):  3.441E-07 0.000E+00

     total cpu time spent up to now is       74.8 secs

     End of self-consistent calculation

          k = 0.0000 0.0000 0.0000 ( 11947 PWs)   bands (ev):

    -8.8138  -7.0956  -4.3727  -2.9598  -2.9598  -2.9598  -2.9316  -2.9316
    -2.9316  -1.5396  -1.5396  -1.5396  -1.2756  -0.9942  -0.9942  -0.9942
     1.3720   1.3720   1.3720   1.6117   1.6117   1.6117

          k = 0.0000 0.1925 0.0000 ( 11989 PWs)   bands (ev):

    -8.6472  -6.9303  -4.7087  -4.2079  -3.7428  -3.7428  -3.0332  -2.0950
    -2.0950  -1.8466  -1.8466  -1.1187  -0.9996  -0.2256  -0.1755  -0.1755
     0.7654   0.7654   0.8956   2.4406   2.5421   2.5421

          k = 0.0000 0.3849 0.0000 ( 12015 PWs)   bands (ev):

    -8.1486  -6.4357  -6.1721  -4.4769  -4.2243  -4.2243  -3.7155  -2.5555
    -2.5555  -1.7852  -0.6486  -0.5351  -0.5351   0.2347   0.2347   1.1149
     1.3495   1.3495   1.6365   2.9008   2.9385   2.9386

          k = 0.0000-0.5774 0.0000 ( 12036 PWs)   bands (ev):

    -7.3216  -7.3216  -5.6156  -5.6156  -4.3853  -4.3853  -2.9019  -2.9019
    -2.7121  -2.7121  -0.1338  -0.1338   0.1308   0.1308   1.2291   1.2291
     1.4966   1.4966   2.6683   2.6683   3.0773   3.0773

          k = 0.1667 0.2887 0.0000 ( 12009 PWs)   bands (ev):

    -8.3146  -6.6003  -5.3570  -5.3570  -3.8793  -3.6710  -3.6710  -2.4863
    -2.4502  -1.0794  -1.0282  -1.0282  -0.8052  -0.5147   0.4388   0.4388
     1.8081   1.9394   1.9645   1.9645   2.1858   2.1858

          k = 0.1667-0.6736 0.0000 ( 12027 PWs)   bands (ev):

    -7.6518  -6.6635  -5.9430  -5.6823  -4.9634  -3.9921  -3.2261  -2.7837
    -2.2587  -1.3116  -1.1585  -0.9047  -0.1799   0.7215   0.7453   0.8892
     1.5642   1.7300   2.1030   2.8326   2.8647   3.3360

          k = 0.3333-0.5774 0.0000 ( 12015 PWs)   bands (ev):

    -6.8277  -6.8277  -6.8277  -5.1261  -5.1261  -5.1261  -2.4182  -2.4182
    -2.4182  -1.0726  -1.0725  -1.0111   0.0801   0.5958   0.5958   0.5958
     0.8714   0.8715   3.3801   3.3801   3.7822   3.8531

     the Fermi energy is     1.7420 ev

!    total energy              =    -473.82291070 Ry
     total all-electron energy =     -5827.536290 Ry
     estimated scf accuracy    <          1.1E-10 Ry
     smearing contrib. (-TS)   =      -0.00053832 Ry
     internal energy E=F+TS    =    -473.82237239 Ry

     The total energy is F=E-TS. E is the sum of the following terms:
     one-electron contribution =    -176.22356556 Ry
     hartree contribution      =      99.07039018 Ry
     xc contribution           =     -30.49032764 Ry
     ewald contribution        =      49.97444512 Ry
     one-center paw contrib.   =    -416.15331449 Ry

     convergence has been achieved in   9 iterations

     negative rho (up, down):  3.441E-07 0.000E+00

     Forces acting on atoms (cartesian axes, Ry/au):

     atom    1 type  1   force =     0.00000015    0.00000009   -0.00012726
     atom    2 type  1   force =    -0.00000015    0.00000009   -0.00012726
     atom    3 type  1   force =     0.00000000   -0.00000018   -0.00012726
     atom    4 type  1   force =     0.00000000    0.00000000   -0.00012712
     atom    5 type  1   force =    -0.00000000    0.00000044   -0.00002867
     atom    6 type  1   force =    -0.00000000    0.00000000   -0.00002945
     atom    7 type  1   force =    -0.00000038   -0.00000022   -0.00002867
     atom    8 type  1   force =     0.00000038   -0.00000022   -0.00002867
     atom    9 type  1   force =     0.00000000    0.00000000    0.00015510
     atom   10 type  1   force =     0.00000000   -0.00000039    0.00015642
     atom   11 type  1   force =    -0.00000034    0.00000020    0.00015642
     atom   12 type  1   force =     0.00000034    0.00000020    0.00015642

     Total force =     0.000317     Total SCF correction =     0.000013
     Energy error            =      8.9E-06 Ry
     Gradient error          =      1.6E-04 Ry/Bohr

     bfgs converged in  13 scf cycles and  12 bfgs steps
     (criteria: energy <  1.0E-04 Ry, force <  7.0E-04 Ry/Bohr)

     End of BFGS Geometry Optimization

     Final energy             =    -473.8229107012 Ry

     File ./output/pwscf.bfgs deleted, as requested
Begin final coordinates

ATOMIC_POSITIONS (angstrom)
Al            1.4318910000        0.8267030000        0.0000000000    0   0   0
Al            4.2956740000        0.8267030000        0.0000000000    0   0   0
Al            2.8637820000        3.3068110000        0.0000000000    0   0   0
Al            5.7275650000        3.3068110000        0.0000000000    0   0   0
Al           -0.0000000000        1.6534035799        2.2933739319
Al            2.8637820000        1.6534060000        2.2933749013
Al            1.4318930959        4.1335152101        2.2933739319
Al            4.2956719041        4.1335152101        2.2933739319
Al            0.0000000000       -0.0000000000        4.5865014473
Al            2.8637820000        0.0000009425        4.5864904057
Al            1.4318918162        2.4801075287        4.5864904057
Al            4.2956731838        2.4801075287        4.5864904057
End final coordinates



     Writing all to output data dir ./output/pwscf.save/
 
     init_run     :      0.38s CPU      0.42s WALL (       1 calls)
     electrons    :     66.24s CPU     67.72s WALL (      13 calls)
     update_pot   :      3.10s CPU      3.13s WALL (      12 calls)
     forces       :      1.65s CPU      1.67s WALL (      13 calls)

     Called by init_run:
     wfcinit      :      0.11s CPU      0.12s WALL (       1 calls)
     potinit      :      0.11s CPU      0.12s WALL (       1 calls)
     hinit0       :      0.07s CPU      0.07s WALL (       1 calls)

     Called by electrons:
     c_bands      :     45.88s CPU     46.39s WALL (     134 calls)
     sum_band     :      6.46s CPU      6.61s WALL (     134 calls)
     v_of_rho     :      0.97s CPU      1.11s WALL (     142 calls)
     newd         :      2.86s CPU      2.94s WALL (     142 calls)
     PAW_pot      :     11.97s CPU     12.03s WALL (     154 calls)
     mix_rho      :      0.17s CPU      0.19s WALL (     134 calls)

     Called by c_bands:
     init_us_2    :      0.73s CPU      0.76s WALL (    2058 calls)
     init_us_2:cp :      0.73s CPU      0.75s WALL (    2058 calls)
     cegterg      :     38.70s CPU     39.12s WALL (     938 calls)

     Called by *egterg:
     cdiaghg      :      2.64s CPU      2.67s WALL (    4511 calls)
     h_psi        :     31.99s CPU     32.34s WALL (    4637 calls)
     s_psi        :      1.55s CPU      1.57s WALL (    4637 calls)
     g_psi        :      0.07s CPU      0.07s WALL (    3692 calls)

     Called by h_psi:
     h_psi:calbec :      1.84s CPU      1.87s WALL (    4637 calls)
     vloc_psi     :     28.38s CPU     28.68s WALL (    4637 calls)
     add_vuspsi   :      1.66s CPU      1.68s WALL (    4637 calls)

     General routines
     calbec       :      2.58s CPU      2.62s WALL (    6023 calls)
     fft          :      1.80s CPU      1.90s WALL (    1980 calls)
     ffts         :      0.04s CPU      0.05s WALL (     276 calls)
     fftw         :     29.22s CPU     29.52s WALL (  139208 calls)
     interpolate  :      0.08s CPU      0.09s WALL (     142 calls)
 
     Parallel routines
 
     PWSCF        :   1m12.88s CPU   1m15.46s WALL

 
   This run was terminated on:  11:10:27  17Jun2023            

=------------------------------------------------------------------------------=
   JOB DONE.
=------------------------------------------------------------------------------=
