
     Program PWSCF v.6.7MaX starts on 12Jun2023 at 18:39:34 

     This program is part of the open-source Quantum ESPRESSO suite
     for quantum simulation of materials; please cite
         "P. Giannozzi et al., J. Phys.:Condens. Matter 21 395502 (2009);
         "P. Giannozzi et al., J. Phys.:Condens. Matter 29 465901 (2017);
          URL http://www.quantum-espresso.org", 
     in publications or presentations arising from this work. More details at
     http://www.quantum-espresso.org/quote

     Parallel version (MPI), running on     6 processors

     MPI processes distributed on     1 nodes
     R & G space division:  proc/nbgrp/npool/nimage =       6
     Waiting for input...
     Reading input from standard input

     Current dimensions of program PWSCF are:
     Max number of different atomic species (ntypx) = 10
     Max number of k-points (npk) =  40000
     Max angular momentum in pseudopotentials (lmaxx) =  3
     file Al.pbe-n-kjpaw_psl.1.0.0.UPF: wavefunction(s)  3S 3P renormalized

     Subspace diagonalization in iterative solution of the eigenvalue problem:
     one sub-group per band group will be used
     scalapack distributed-memory algorithm (size of sub-group:  2*  2 procs)

     Found symmetry operation: I + ( -0.5000  0.0000  0.0000)
     This is a supercell, fractional translations are disabled
     Message from routine setup:
     using ibrav=0 with symmetry is DISCOURAGED, use correct ibrav instead

     Parallelization info
     --------------------
     sticks:   dense  smooth     PW     G-vecs:    dense   smooth      PW
     Min         324     159     46                29452    10409    1595
     Max         325     160     48                29461    10426    1600
     Sum        1945     955    283               176729    62479    9585



     bravais-lattice index     =            0
     lattice parameter (alat)  =      10.8235  a.u.
     unit-cell volume          =    2813.7848 (a.u.)^3
     number of atoms/cell      =           12
     number of atomic types    =            1
     number of electrons       =        36.00
     number of Kohn-Sham states=           22
     kinetic-energy cutoff     =      30.0000  Ry
     charge density cutoff     =     240.0000  Ry
     scf convergence threshold =      1.0E-04
     mixing beta               =       0.7000
     number of iterations used =            8  plain     mixing
     energy convergence thresh.=      1.0E-04
     force convergence thresh. =      1.0E-01
     Exchange-correlation= SLA  PW   PBX  PBC
                           (   1   4   3   4   0   0   0)
     nstep                     =           50


     celldm(1)=  10.823529  celldm(2)=   0.000000  celldm(3)=   0.000000
     celldm(4)=   0.000000  celldm(5)=   0.000000  celldm(6)=   0.000000

     crystal axes: (cart. coord. in units of alat)
               a(1) = (   1.000000   0.000000   0.000000 )  
               a(2) = (   0.500000   0.866025   0.000000 )  
               a(3) = (   0.000000   0.000000   2.562439 )  

     reciprocal axes: (cart. coord. in units 2 pi/alat)
               b(1) = (  1.000000 -0.577350  0.000000 )  
               b(2) = (  0.000000  1.154701  0.000000 )  
               b(3) = (  0.000000  0.000000  0.390253 )  


     PseudoPot. # 1 for Al read from file:
     /home/mini21k/QE/Potential/Al.pbe-n-kjpaw_psl.1.0.0.UPF
     MD5 check sum: cfc449ca30b5f3223ec38ddd88ac046d
     Pseudo is Projector augmented-wave + core cor, Zval =  3.0
     Generated using "atomic" code by A. Dal Corso  v.5.1
     Shape of augmentation charge: PSQ
     Using radial grid of 1135 points,  6 beta functions with: 
                l(1) =   0
                l(2) =   0
                l(3) =   1
                l(4) =   1
                l(5) =   2
                l(6) =   2
     Q(r) pseudized with 0 coefficients 


     atomic species   valence    mass     pseudopotential
        Al             3.00    26.98154     Al( 1.00)

      6 Sym. Ops. (no inversion) found



   Cartesian axes

     site n.     atom                  positions (alat units)
         1           Al  tau(   1) = (   0.2500000   0.1443376   0.0000000  )
         2           Al  tau(   2) = (   0.7500001   0.1443376   0.0000000  )
         3           Al  tau(   3) = (   0.4999999   0.5773502   0.0000000  )
         4           Al  tau(   4) = (   1.0000000   0.5773502   0.0000000  )
         5           Al  tau(   5) = (   0.0000000   0.2886752   0.4082484  )
         6           Al  tau(   6) = (   0.4999999   0.2886752   0.4082484  )
         7           Al  tau(   7) = (   0.2500000   0.7216878   0.4082484  )
         8           Al  tau(   8) = (   0.7500001   0.7216878   0.4082484  )
         9           Al  tau(   9) = (   0.0000000   0.0000000   0.8164965  )
        10           Al  tau(  10) = (   0.4999999   0.0000000   0.8164965  )
        11           Al  tau(  11) = (   0.2500000   0.4330126   0.8164965  )
        12           Al  tau(  12) = (   0.7500001   0.4330126   0.8164965  )

     number of k points=     3  Gaussian smearing, width (Ry)=  0.0030
                       cart. coord. in units 2pi/alat
        k(    1) = (   0.0000000   0.0000000   0.0000000), wk =   0.2222222
        k(    2) = (   0.0000000   0.3849002   0.0000000), wk =   1.3333333
        k(    3) = (   0.3333333  -0.5773503   0.0000000), wk =   0.4444444

     Dense  grid:   176729 G-vectors     FFT dimensions: (  54,  54, 144)

     Smooth grid:    62479 G-vectors     FFT dimensions: (  40,  40, 100)

     Estimated max dynamical RAM per process >     123.36 MB

     Estimated total dynamical RAM >     740.16 MB

     Initial potential from superposition of free atoms

     starting charge   35.97252, renormalised to   36.00000
     Starting wfcs are   48 randomized atomic wfcs
     Checking if some PAW data can be deallocated... 

     total cpu time spent up to now is        1.3 secs

     Self-consistent Calculation

     iteration #  1     ecut=    30.00 Ry     beta= 0.70
     Davidson diagonalization with overlap
     ethr =  1.00E-02,  avg # of iterations =  4.0

     total cpu time spent up to now is        2.8 secs

     total energy              =    -473.50613253 Ry
     estimated scf accuracy    <       0.54849766 Ry

     iteration #  2     ecut=    30.00 Ry     beta= 0.70
     Davidson diagonalization with overlap
     ethr =  1.52E-03,  avg # of iterations =  5.3

     total cpu time spent up to now is        4.4 secs

     total energy              =    -473.05404611 Ry
     estimated scf accuracy    <       5.71921268 Ry

     iteration #  3     ecut=    30.00 Ry     beta= 0.70
     Davidson diagonalization with overlap
     ethr =  1.52E-03,  avg # of iterations =  4.7

     total cpu time spent up to now is        6.1 secs

     total energy              =    -473.82359289 Ry
     estimated scf accuracy    <       0.02136592 Ry

     iteration #  4     ecut=    30.00 Ry     beta= 0.70
     Davidson diagonalization with overlap
     ethr =  5.93E-05,  avg # of iterations =  8.3

     total cpu time spent up to now is        7.7 secs

     total energy              =    -473.83155975 Ry
     estimated scf accuracy    <       0.02797066 Ry

     iteration #  5     ecut=    30.00 Ry     beta= 0.70
     Davidson diagonalization with overlap
     ethr =  5.93E-05,  avg # of iterations =  2.7

     negative rho (up, down):  1.151E-07 0.000E+00

     total cpu time spent up to now is        9.2 secs

     total energy              =    -473.82883552 Ry
     estimated scf accuracy    <       0.05184782 Ry

     iteration #  6     ecut=    30.00 Ry     beta= 0.70
     Davidson diagonalization with overlap
     ethr =  5.93E-05,  avg # of iterations =  2.0

     negative rho (up, down):  3.584E-07 0.000E+00

     total cpu time spent up to now is       10.6 secs

     total energy              =    -473.83358290 Ry
     estimated scf accuracy    <       0.00137263 Ry

     iteration #  7     ecut=    30.00 Ry     beta= 0.70
     Davidson diagonalization with overlap
     ethr =  3.81E-06,  avg # of iterations =  4.3

     negative rho (up, down):  5.318E-07 0.000E+00

     total cpu time spent up to now is       12.1 secs

     total energy              =    -473.83371911 Ry
     estimated scf accuracy    <       0.00075280 Ry

     iteration #  8     ecut=    30.00 Ry     beta= 0.70
     Davidson diagonalization with overlap
     ethr =  2.09E-06,  avg # of iterations =  3.0

     negative rho (up, down):  5.967E-07 0.000E+00

     total cpu time spent up to now is       13.5 secs

     End of self-consistent calculation

          k = 0.0000 0.0000 0.0000 (  7825 PWs)   bands (ev):

    -8.7723  -6.9901  -4.4285  -2.9377  -2.9354  -2.9354  -2.8696  -2.8696
    -2.8677  -1.4242  -1.4242  -1.4230  -1.2991  -0.8941  -0.8929  -0.8929
     1.3401   1.3412   1.3412   1.5440   1.5440   1.5452

          k = 0.0000 0.3849 0.0000 (  7800 PWs)   bands (ev):

    -8.1069  -6.3299  -6.1300  -4.3699  -4.1818  -4.1817  -3.7704  -2.4467
    -2.4465  -1.8363  -0.6710  -0.5074  -0.5069   0.2112   0.2113   1.1087
     1.4521   1.4521   1.6711   2.7973   2.9534   2.9548

          k = 0.3333-0.5774 0.0000 (  7830 PWs)   bands (ev):

    -6.7871  -6.7859  -6.7844  -5.0206  -5.0194  -5.0188  -2.4721  -2.4708
    -2.4703  -1.0497  -1.0494  -0.9252   0.2039   0.5751   0.5762   0.5769
     0.9707   0.9745   3.3517   3.3553   3.6852   3.8069

     the Fermi energy is     1.4906 ev

!    total energy              =    -473.83376900 Ry

     total all-electron energy =     -5827.547148 Ry
     estimated scf accuracy    <       0.00005995 Ry
     smearing contrib. (-TS)   =      -0.00102619 Ry
     internal energy E=F+TS    =    -473.83274281 Ry

     The total energy is F=E-TS. E is the sum of the following terms:
     one-electron contribution =    -169.95196510 Ry
     hartree contribution      =      95.88024126 Ry
     xc contribution           =     -30.41859507 Ry
     ewald contribution        =      46.80299174 Ry
     one-center paw contrib.   =    -416.14541564 Ry

     convergence has been achieved in   8 iterations

     negative rho (up, down):  5.967E-07 0.000E+00

     Forces acting on atoms (cartesian axes, Ry/au):

     atom    1 type  1   force =     0.00000757    0.00000437   -0.00166012
     atom    2 type  1   force =    -0.00000757    0.00000437   -0.00166012
     atom    3 type  1   force =     0.00000000   -0.00000874   -0.00166012
     atom    4 type  1   force =     0.00000000    0.00000000   -0.00174999
     atom    5 type  1   force =     0.00000000   -0.00021013   -0.00007281
     atom    6 type  1   force =     0.00000000    0.00000000    0.00001290
     atom    7 type  1   force =     0.00018197    0.00010506   -0.00007281
     atom    8 type  1   force =    -0.00018197    0.00010506   -0.00007281
     atom    9 type  1   force =     0.00000000    0.00000000    0.00174309
     atom   10 type  1   force =     0.00000000    0.00007041    0.00173094
     atom   11 type  1   force =     0.00006098   -0.00003520    0.00173094
     atom   12 type  1   force =    -0.00006098   -0.00003520    0.00173094

     Total force =     0.003491     Total SCF correction =     0.009371
     SCF correction compared to forces is large: reduce conv_thr to get better values

     BFGS Geometry Optimization
     Energy error            =      0.0E+00
     Gradient error          =      1.7E-03

     bfgs converged in   1 scf cycles and   0 bfgs steps
     (criteria: energy <  1.0E-04 Ry, force <  1.0E-01 Ry/Bohr)

     End of BFGS Geometry Optimization

     Final energy   =    -473.8337690002 Ry
Begin final coordinates

ATOMIC_POSITIONS (angstrom)
Al            1.4318910000        0.8267030000        0.0000000000    0   0   0
Al            4.2956740000        0.8267030000        0.0000000000    0   0   0
Al            2.8637820000        3.3068110000        0.0000000000    0   0   0
Al            5.7275650000        3.3068110000        0.0000000000    0   0   0
Al            0.0000000000        1.6534060000        2.3382690000
Al            2.8637820000        1.6534060000        2.3382690000
Al            1.4318910000        4.1335140000        2.3382690000
Al            4.2956740000        4.1335140000        2.3382690000
Al            0.0000000000        0.0000000000        4.6765370000
Al            2.8637820000        0.0000000000        4.6765370000
Al            1.4318910000        2.4801080000        4.6765370000
Al            4.2956740000        2.4801080000        4.6765370000
End final coordinates



     Writing output data file ./output/pwscf.save/

     init_run     :      1.20s CPU      1.23s WALL (       1 calls)
     electrons    :     11.65s CPU     12.21s WALL (       1 calls)
     forces       :      0.95s CPU      0.98s WALL (       1 calls)

     Called by init_run:
     wfcinit      :      0.37s CPU      0.37s WALL (       1 calls)
     potinit      :      0.36s CPU      0.38s WALL (       1 calls)
     hinit0       :      0.20s CPU      0.20s WALL (       1 calls)

     Called by electrons:
     c_bands      :      4.64s CPU      4.72s WALL (       8 calls)
     sum_band     :      2.90s CPU      3.08s WALL (       8 calls)
     v_of_rho     :      0.39s CPU      0.43s WALL (       9 calls)
     newd         :      1.92s CPU      2.19s WALL (       9 calls)
     PAW_pot      :      2.21s CPU      2.22s WALL (       9 calls)
     mix_rho      :      0.06s CPU      0.07s WALL (       8 calls)

     Called by c_bands:
     init_us_2    :      0.10s CPU      0.11s WALL (      54 calls)
     cegterg      :      4.30s CPU      4.37s WALL (      24 calls)

     Called by *egterg:
     cdiaghg      :      0.10s CPU      0.10s WALL (     127 calls)
     h_psi        :      2.73s CPU      2.79s WALL (     130 calls)
     s_psi        :      0.75s CPU      0.76s WALL (     130 calls)
     g_psi        :      0.01s CPU      0.01s WALL (     103 calls)

     Called by h_psi:
     h_psi:calbec :      1.00s CPU      1.03s WALL (     130 calls)
     vloc_psi     :      0.89s CPU      0.93s WALL (     130 calls)
     add_vuspsi   :      0.84s CPU      0.84s WALL (     130 calls)

     General routines
     calbec       :      1.46s CPU      1.49s WALL (     166 calls)
     fft          :      0.25s CPU      0.28s WALL (     126 calls)
     ffts         :      0.01s CPU      0.01s WALL (      17 calls)
     fftw         :      0.90s CPU      0.93s WALL (    3936 calls)
     interpolate  :      0.03s CPU      0.03s WALL (       9 calls)

     Parallel routines
     fft_scatt_xy :      0.15s CPU      0.15s WALL (    4079 calls)
     fft_scatt_yz :      0.43s CPU      0.45s WALL (    4079 calls)

     PWSCF        :     13.90s CPU     14.52s WALL


   This run was terminated on:  18:39:49  12Jun2023            

=------------------------------------------------------------------------------=
   JOB DONE.
=------------------------------------------------------------------------------=
