   2   2   0   0
  0.1687500E+04  0.1500000E-08  0.1500000E-08  0.1500000E-08  0.5000000E-15
   1.0000000000000000E-004
  CAR 
 Slab                                    
      1.80776457    -30.72542502  301     -8.99026134      1.00000000
    -30.725  0.0000E+00  0.0000E+00
    -30.617  0.0000E+00  0.0000E+00
    -30.509  0.0000E+00  0.0000E+00
    -30.400  0.0000E+00  0.0000E+00
    -30.292  0.0000E+00  0.0000E+00
    -30.183  0.0000E+00  0.0000E+00
    -30.075  0.0000E+00  0.0000E+00
    -29.966  0.0000E+00  0.0000E+00
    -29.858  0.0000E+00  0.0000E+00
    -29.749 -0.3183E-44 -0.3452E-45
    -29.641 -0.1986E-27 -0.2154E-28
    -29.533 -0.9094E-15 -0.9862E-16
    -29.424 -0.2886E-06 -0.3130E-07
    -29.316 -0.2994E-02 -0.3247E-03
    -29.207  0.9402E-01  0.9871E-02
    -29.099  0.1201E-02  0.1000E-01
    -28.990 -0.1090E-04  0.1000E-01
    -28.882 -0.4955E-12  0.1000E-01
    -28.773  0.0000E+00  0.1000E-01
    -28.665  0.0000E+00  0.1000E-01
    -28.557  0.0000E+00  0.1000E-01
    -28.448  0.0000E+00  0.1000E-01
    -28.340  0.0000E+00  0.1000E-01
    -28.231  0.0000E+00  0.1000E-01
    -28.123  0.0000E+00  0.1000E-01
    -28.014  0.0000E+00  0.1000E-01
    -27.906  0.0000E+00  0.1000E-01
    -27.797  0.0000E+00  0.1000E-01
    -27.689  0.0000E+00  0.1000E-01
    -27.581  0.0000E+00  0.1000E-01
    -27.472  0.0000E+00  0.1000E-01
    -27.364  0.0000E+00  0.1000E-01
    -27.255  0.0000E+00  0.1000E-01
    -27.147  0.0000E+00  0.1000E-01
    -27.038  0.0000E+00  0.1000E-01
    -26.930  0.0000E+00  0.1000E-01
    -26.821  0.0000E+00  0.1000E-01
    -26.713  0.0000E+00  0.1000E-01
    -26.605  0.0000E+00  0.1000E-01
    -26.496  0.0000E+00  0.1000E-01
    -26.388  0.0000E+00  0.1000E-01
    -26.279  0.0000E+00  0.1000E-01
    -26.171  0.0000E+00  0.1000E-01
    -26.062  0.0000E+00  0.1000E-01
    -25.954  0.0000E+00  0.1000E-01
    -25.845  0.0000E+00  0.1000E-01
    -25.737  0.0000E+00  0.1000E-01
    -25.629  0.0000E+00  0.1000E-01
    -25.520  0.0000E+00  0.1000E-01
    -25.412  0.0000E+00  0.1000E-01
    -25.303  0.0000E+00  0.1000E-01
    -25.195  0.0000E+00  0.1000E-01
    -25.086  0.0000E+00  0.1000E-01
    -24.978  0.0000E+00  0.1000E-01
    -24.869  0.0000E+00  0.1000E-01
    -24.761  0.0000E+00  0.1000E-01
    -24.653  0.0000E+00  0.1000E-01
    -24.544  0.0000E+00  0.1000E-01
    -24.436  0.0000E+00  0.1000E-01
    -24.327  0.0000E+00  0.1000E-01
    -24.219  0.0000E+00  0.1000E-01
    -24.110  0.0000E+00  0.1000E-01
    -24.002  0.0000E+00  0.1000E-01
    -23.893  0.0000E+00  0.1000E-01
    -23.785  0.0000E+00  0.1000E-01
    -23.677  0.0000E+00  0.1000E-01
    -23.568  0.0000E+00  0.1000E-01
    -23.460  0.0000E+00  0.1000E-01
    -23.351  0.0000E+00  0.1000E-01
    -23.243  0.0000E+00  0.1000E-01
    -23.134  0.0000E+00  0.1000E-01
    -23.026  0.0000E+00  0.1000E-01
    -22.917  0.0000E+00  0.1000E-01
    -22.809  0.0000E+00  0.1000E-01
    -22.701  0.0000E+00  0.1000E-01
    -22.592  0.0000E+00  0.1000E-01
    -22.484  0.0000E+00  0.1000E-01
    -22.375  0.0000E+00  0.1000E-01
    -22.267  0.0000E+00  0.1000E-01
    -22.158  0.0000E+00  0.1000E-01
    -22.050  0.0000E+00  0.1000E-01
    -21.941  0.0000E+00  0.1000E-01
    -21.833  0.0000E+00  0.1000E-01
    -21.725  0.0000E+00  0.1000E-01
    -21.616  0.0000E+00  0.1000E-01
    -21.508  0.0000E+00  0.1000E-01
    -21.399  0.0000E+00  0.1000E-01
    -21.291  0.0000E+00  0.1000E-01
    -21.182  0.0000E+00  0.1000E-01
    -21.074  0.0000E+00  0.1000E-01
    -20.965  0.0000E+00  0.1000E-01
    -20.857  0.0000E+00  0.1000E-01
    -20.749  0.0000E+00  0.1000E-01
    -20.640  0.0000E+00  0.1000E-01
    -20.532  0.0000E+00  0.1000E-01
    -20.423  0.0000E+00  0.1000E-01
    -20.315  0.0000E+00  0.1000E-01
    -20.206  0.0000E+00  0.1000E-01
    -20.098  0.0000E+00  0.1000E-01
    -19.989  0.0000E+00  0.1000E-01
    -19.881  0.0000E+00  0.1000E-01
    -19.773  0.0000E+00  0.1000E-01
    -19.664  0.0000E+00  0.1000E-01
    -19.556  0.0000E+00  0.1000E-01
    -19.447  0.0000E+00  0.1000E-01
    -19.339  0.0000E+00  0.1000E-01
    -19.230  0.0000E+00  0.1000E-01
    -19.122  0.0000E+00  0.1000E-01
    -19.013  0.0000E+00  0.1000E-01
    -18.905  0.0000E+00  0.1000E-01
    -18.797  0.0000E+00  0.1000E-01
    -18.688  0.0000E+00  0.1000E-01
    -18.580  0.0000E+00  0.1000E-01
    -18.471  0.0000E+00  0.1000E-01
    -18.363  0.0000E+00  0.1000E-01
    -18.254  0.0000E+00  0.1000E-01
    -18.146  0.0000E+00  0.1000E-01
    -18.037  0.0000E+00  0.1000E-01
    -17.929  0.0000E+00  0.1000E-01
    -17.821  0.0000E+00  0.1000E-01
    -17.712  0.0000E+00  0.1000E-01
    -17.604  0.0000E+00  0.1000E-01
    -17.495  0.0000E+00  0.1000E-01
    -17.387  0.0000E+00  0.1000E-01
    -17.278  0.0000E+00  0.1000E-01
    -17.170  0.0000E+00  0.1000E-01
    -17.061  0.0000E+00  0.1000E-01
    -16.953  0.0000E+00  0.1000E-01
    -16.845  0.0000E+00  0.1000E-01
    -16.736  0.0000E+00  0.1000E-01
    -16.628  0.0000E+00  0.1000E-01
    -16.519  0.0000E+00  0.1000E-01
    -16.411  0.0000E+00  0.1000E-01
    -16.302  0.0000E+00  0.1000E-01
    -16.194  0.0000E+00  0.1000E-01
    -16.085  0.0000E+00  0.1000E-01
    -15.977  0.0000E+00  0.1000E-01
    -15.869  0.0000E+00  0.1000E-01
    -15.760  0.0000E+00  0.1000E-01
    -15.652  0.0000E+00  0.1000E-01
    -15.543  0.0000E+00  0.1000E-01
    -15.435  0.0000E+00  0.1000E-01
    -15.326  0.0000E+00  0.1000E-01
    -15.218  0.0000E+00  0.1000E-01
    -15.109  0.0000E+00  0.1000E-01
    -15.001  0.0000E+00  0.1000E-01
    -14.893  0.0000E+00  0.1000E-01
    -14.784  0.0000E+00  0.1000E-01
    -14.676  0.0000E+00  0.1000E-01
    -14.567  0.0000E+00  0.1000E-01
    -14.459 -0.1679E-31  0.1000E-01
    -14.350 -0.9997E-18  0.1000E-01
    -14.242 -0.4059E-08  0.1000E-01
    -14.133 -0.8421E-03  0.9909E-02
    -14.025  0.6300E-01  0.1674E-01
    -13.917  0.3023E-01  0.2002E-01
    -13.808 -0.1797E-03  0.2000E-01
    -13.700 -0.1166E-09  0.2000E-01
    -13.591  0.0000E+00  0.2000E-01
    -13.483  0.0000E+00  0.2000E-01
    -13.374  0.0000E+00  0.2000E-01
    -13.266  0.0000E+00  0.2000E-01
    -13.158  0.0000E+00  0.2000E-01
    -13.049  0.0000E+00  0.2000E-01
    -12.941  0.0000E+00  0.2000E-01
    -12.832  0.0000E+00  0.2000E-01
    -12.724  0.0000E+00  0.2000E-01
    -12.615  0.0000E+00  0.2000E-01
    -12.507  0.0000E+00  0.2000E-01
    -12.398  0.0000E+00  0.2000E-01
    -12.290  0.0000E+00  0.2000E-01
    -12.182 -0.2620E-35  0.2000E-01
    -12.073 -0.1693E-20  0.2000E-01
    -11.965 -0.7709E-10  0.2000E-01
    -11.856 -0.2108E-03  0.1998E-01
    -11.748  0.4337E-01  0.2468E-01
    -11.639  0.1437E+00  0.4026E-01
    -11.531 -0.2421E-02  0.4000E-01
    -11.422 -0.2138E-07  0.4000E-01
    -11.314  0.0000E+00  0.4000E-01
    -11.206  0.0000E+00  0.4000E-01
    -11.097  0.0000E+00  0.4000E-01
    -10.989  0.0000E+00  0.4000E-01
    -10.880  0.0000E+00  0.4000E-01
    -10.772  0.0000E+00  0.4000E-01
    -10.663  0.0000E+00  0.4000E-01
    -10.555  0.0000E+00  0.4000E-01
    -10.446  0.0000E+00  0.4000E-01
    -10.338  0.0000E+00  0.4000E-01
    -10.230  0.0000E+00  0.4000E-01
    -10.121  0.0000E+00  0.4000E-01
    -10.013  0.0000E+00  0.4000E-01
     -9.904  0.0000E+00  0.4000E-01
     -9.796  0.0000E+00  0.4000E-01
     -9.687  0.0000E+00  0.4000E-01
     -9.579  0.0000E+00  0.4000E-01
     -9.470 -0.1055E-33  0.4000E-01
     -9.362 -0.2297E-19  0.4000E-01
     -9.254 -0.3480E-09  0.4000E-01
     -9.145 -0.2979E-03  0.3997E-01
     -9.037  0.3976E-01  0.4428E-01
     -8.928  0.5331E-01  0.5006E-01
     -8.820 -0.5580E-03  0.5000E-01
     -8.711 -0.1469E-08  0.5000E-01
     -8.603  0.0000E+00  0.5000E-01
     -8.494  0.0000E+00  0.5000E-01
     -8.386  0.0000E+00  0.5000E-01
     -8.278  0.0000E+00  0.5000E-01
     -8.169  0.0000E+00  0.5000E-01
     -8.061  0.0000E+00  0.5000E-01
     -7.952  0.0000E+00  0.5000E-01
     -7.844  0.0000E+00  0.5000E-01
     -7.735  0.0000E+00  0.5000E-01
     -7.627  0.0000E+00  0.5000E-01
     -7.518  0.0000E+00  0.5000E-01
     -7.410  0.0000E+00  0.5000E-01
     -7.302  0.0000E+00  0.5000E-01
     -7.193  0.0000E+00  0.5000E-01
     -7.085  0.0000E+00  0.5000E-01
     -6.976  0.0000E+00  0.5000E-01
     -6.868  0.0000E+00  0.5000E-01
     -6.759  0.0000E+00  0.5000E-01
     -6.651  0.0000E+00  0.5000E-01
     -6.542  0.0000E+00  0.5000E-01
     -6.434  0.0000E+00  0.5000E-01
     -6.326  0.0000E+00  0.5000E-01
     -6.217  0.0000E+00  0.5000E-01
     -6.109  0.0000E+00  0.5000E-01
     -6.000  0.0000E+00  0.5000E-01
     -5.892  0.0000E+00  0.5000E-01
     -5.783  0.0000E+00  0.5000E-01
     -5.675  0.0000E+00  0.5000E-01
     -5.566  0.0000E+00  0.5000E-01
     -5.458  0.0000E+00  0.5000E-01
     -5.350  0.0000E+00  0.5000E-01
     -5.241  0.0000E+00  0.5000E-01
     -5.133  0.0000E+00  0.5000E-01
     -5.024  0.0000E+00  0.5000E-01
     -4.916  0.0000E+00  0.5000E-01
     -4.807  0.0000E+00  0.5000E-01
     -4.699  0.0000E+00  0.5000E-01
     -4.590  0.0000E+00  0.5000E-01
     -4.482  0.0000E+00  0.5000E-01
     -4.374  0.0000E+00  0.5000E-01
     -4.265  0.0000E+00  0.5000E-01
     -4.157  0.0000E+00  0.5000E-01
     -4.048  0.0000E+00  0.5000E-01
     -3.940  0.0000E+00  0.5000E-01
     -3.831  0.0000E+00  0.5000E-01
     -3.723  0.0000E+00  0.5000E-01
     -3.614  0.0000E+00  0.5000E-01
     -3.506  0.0000E+00  0.5000E-01
     -3.398  0.0000E+00  0.5000E-01
     -3.289  0.0000E+00  0.5000E-01
     -3.181  0.0000E+00  0.5000E-01
     -3.072  0.0000E+00  0.5000E-01
     -2.964  0.0000E+00  0.5000E-01
     -2.855  0.0000E+00  0.5000E-01
     -2.747  0.0000E+00  0.5000E-01
     -2.638 -0.2603E-44  0.5000E-01
     -2.530 -0.1973E-27  0.5000E-01
     -2.422 -0.1105E-14  0.5000E-01
     -2.313 -0.4259E-06  0.5000E-01
     -2.205 -0.5686E-02  0.4938E-01
     -2.096  0.1854E+00  0.6949E-01
     -1.988  0.4763E-02  0.7000E-01
     -1.879 -0.2779E-04  0.7000E-01
     -1.771 -0.1548E-11  0.7000E-01
     -1.662  0.0000E+00  0.7000E-01
     -1.554  0.0000E+00  0.7000E-01
     -1.446  0.0000E+00  0.7000E-01
     -1.337  0.0000E+00  0.7000E-01
     -1.229  0.0000E+00  0.7000E-01
     -1.120  0.0000E+00  0.7000E-01
     -1.012  0.0000E+00  0.7000E-01
     -0.903  0.0000E+00  0.7000E-01
     -0.795  0.0000E+00  0.7000E-01
     -0.686 -0.1664E-41  0.7000E-01
     -0.578 -0.2592E-25  0.7000E-01
     -0.470 -0.2938E-13  0.7000E-01
     -0.361 -0.2230E-05  0.7000E-01
     -0.253 -0.2805E-02  0.6970E-01
     -0.144  0.9806E-01  0.8033E-01
     -0.036 -0.3036E-02  0.8000E-01
      0.073 -0.1701E-05  0.8000E-01
      0.181 -0.1090E-04  0.8000E-01
      0.290  0.1201E-02  0.8013E-01
      0.398  0.9402E-01  0.9032E-01
      0.506 -0.2994E-02  0.9000E-01
      0.615 -0.2886E-06  0.9000E-01
      0.723 -0.9009E-15  0.9000E-01
      0.832  0.0000E+00  0.9000E-01
      0.940  0.0000E+00  0.9000E-01
      1.049  0.0000E+00  0.9000E-01
      1.157  0.0000E+00  0.9000E-01
      1.266  0.0000E+00  0.9000E-01
      1.374  0.0000E+00  0.9000E-01
      1.482  0.0000E+00  0.9000E-01
      1.591  0.0000E+00  0.9000E-01
      1.699  0.0000E+00  0.9000E-01
      1.808  0.0000E+00  0.9000E-01
