    2    2  200    1
  0.1687500E+04  0.1500000E-08  0.1500000E-08  0.1500000E-08  0.5000000E-15
   1.0000000000000000E-004
  CAR 
 Slab                                    
     10      1      9

  0.1262379E-14  0.1262379E-14  0.1262379E-14  0.1000000E+01
    1      -29.246644   1.000000
    2      -14.035594   1.000000
    3      -11.731037   1.000000
    4      -11.731020   1.000000
    5       -9.032355   1.000000
    6       -2.133426   0.000000
    7       -2.133419   0.000000
    8       -0.199552   0.000000
    9        0.328983   0.000000
