       N       E                     dE             d eps       ncg     rms          rms(c)
DAV:   1     0.670549095051E+02    0.67055E+02   -0.20298E+03    34   0.419E+02
DAV:   2    -0.374461664839E+01   -0.70800E+02   -0.70754E+02    34   0.121E+02
DAV:   3    -0.154160493594E+02   -0.11671E+02   -0.11671E+02    35   0.612E+01
DAV:   4    -0.156057429678E+02   -0.18969E+00   -0.18969E+00    28   0.689E+00
DAV:   5    -0.156058783406E+02   -0.13537E-03   -0.13537E-03    28   0.226E-01    0.695E+00
DAV:   6    -0.149550445843E+02    0.65083E+00   -0.34591E+00    18   0.133E+01    0.375E+00
DAV:   7    -0.148239836186E+02    0.13106E+00   -0.72018E-01    27   0.539E+00    0.191E+00
DAV:   8    -0.147904863485E+02    0.33497E-01   -0.15425E-01    18   0.318E+00    0.492E-01
DAV:   9    -0.147901204490E+02    0.36590E-03   -0.69990E-03    20   0.694E-01    0.115E-01
DAV:  10    -0.147909300745E+02   -0.80963E-03   -0.12392E-03    18   0.271E-01    0.360E-02
DAV:  11    -0.147926663694E+02   -0.17363E-02   -0.41178E-04    18   0.118E-01    0.172E-02
DAV:  12    -0.147933232400E+02   -0.65687E-03   -0.86161E-05    18   0.503E-02    0.939E-03
DAV:  13    -0.147941204587E+02   -0.79722E-03   -0.17387E-04    19   0.596E-02    0.602E-03
DAV:  14    -0.147944346183E+02   -0.31416E-03   -0.26093E-05    20   0.238E-02    0.341E-03
DAV:  15    -0.147947248393E+02   -0.29022E-03   -0.22830E-05    20   0.228E-02    0.305E-03
DAV:  16    -0.147947994456E+02   -0.74606E-04   -0.38344E-06    20   0.113E-02
   1 F= -.14794799E+02 E0= -.14795766E+02  d E =-.147948E+02
       N       E                     dE             d eps       ncg     rms          rms(c)
DAV:   1    -0.147323925080E+02    0.62332E-01   -0.41455E+00    18   0.214E+01    0.900E-01
DAV:   2    -0.147287518856E+02    0.36406E-02   -0.84435E-02    20   0.272E+00    0.411E-01
DAV:   3    -0.147260568344E+02    0.26951E-02   -0.99703E-03    20   0.924E-01    0.146E-01
DAV:   4    -0.147263190135E+02   -0.26218E-03   -0.73526E-04    28   0.260E-01    0.600E-02
DAV:   5    -0.147264938002E+02   -0.17479E-03   -0.89787E-05    18   0.785E-02    0.886E-03
DAV:   6    -0.147265337546E+02   -0.39954E-04   -0.64247E-06    20   0.200E-02
   2 F= -.14726534E+02 E0= -.14727500E+02  d E =0.682657E-01
       N       E                     dE             d eps       ncg     rms          rms(c)
DAV:   1    -0.147986774792E+02   -0.72184E-01   -0.34093E+00    20   0.195E+01    0.853E-01
DAV:   2    -0.147974596161E+02    0.12179E-02   -0.77518E-02    20   0.260E+00    0.372E-01
DAV:   3    -0.147951219420E+02    0.23377E-02   -0.77120E-03    20   0.808E-01    0.143E-01
DAV:   4    -0.147952958992E+02   -0.17396E-03   -0.95651E-04    19   0.297E-01    0.551E-02
DAV:   5    -0.147953799452E+02   -0.84046E-04   -0.13924E-04    19   0.980E-02
   3 F= -.14795380E+02 E0= -.14796346E+02  d E =-.580500E-03
