Slab                                    
           1
    15.000000    0.000000    0.000000
     0.000000   15.000000    0.000000
     0.000000    0.000000   15.000000
   C    O 
   1   1
Direct configuration=     1
   0.33333333  0.33333333  0.33333333
   0.40933333  0.33333333  0.33333333
Direct configuration=     2
   0.33200410  0.33333333  0.33333333
   0.41066256  0.33333333  0.33333333
Direct configuration=     3
   0.33321422  0.33333333  0.33333333
   0.40945244  0.33333333  0.33333333
