
     Program PWSCF v.7.1 starts on 17Jun2023 at 11:10:49 

     This program is part of the open-source Quantum ESPRESSO suite
     for quantum simulation of materials; please cite
         "P. Giannozzi et al., J. Phys.:Condens. Matter 21 395502 (2009);
         "P. Giannozzi et al., J. Phys.:Condens. Matter 29 465901 (2017);
         "P. Giannozzi et al., J. Chem. Phys. 152 154105 (2020);
          URL http://www.quantum-espresso.org", 
     in publications or presentations arising from this work. More details at
     http://www.quantum-espresso.org/quote

     Parallel version (MPI), running on    24 processors

     MPI processes distributed on     1 nodes
     223639 MiB available memory on the printing compute node when the environment starts
 
     Waiting for input...
     Reading input from standard input

     Current dimensions of program PWSCF are:
     Max number of different atomic species (ntypx) = 10
     Max number of k-points (npk) =  40000
     Max angular momentum in pseudopotentials (lmaxx) =  4
     file Al.pbe-n-kjpaw_psl.1.0.0.UPF: wavefunction(s)  3S 3P renormalized
     Found identity + ( -0.5000  0.0000  0.0000) symmetry
     This is a supercell, fractional translations are disabled
     Message from routine setup:
     using ibrav=0 with symmetry is DISCOURAGED, use correct ibrav instead
 
     R & G space division:  proc/nbgrp/npool/nimage =      24
     Subspace diagonalization in iterative solution of the eigenvalue problem:
     a serial algorithm will be used

 
     Parallelization info
     --------------------
     sticks:   dense  smooth     PW     G-vecs:    dense   smooth      PW
     Min          81      53     15                 7361     3997     603
     Max          82      54     16                 7370     4010     616
     Sum        1945    1285    367               176729    96075   14573
 
     Using Slab Decomposition
 


     bravais-lattice index     =            0
     lattice parameter (alat)  =      10.8235  a.u.
     unit-cell volume          =    2813.7848 (a.u.)^3
     number of atoms/cell      =           12
     number of atomic types    =            1
     number of electrons       =        36.00
     number of Kohn-Sham states=           22
     kinetic-energy cutoff     =      40.0000  Ry
     charge density cutoff     =     240.0000  Ry
     scf convergence threshold =      1.0E-07
     mixing beta               =       0.7000
     number of iterations used =            8  plain     mixing
     energy convergence thresh.=      1.0E-04
     force convergence thresh. =      7.0E-04
     Exchange-correlation= SLA  PW   PBX  PBC
                           (   1   4   3   4   0   0   0)
     nstep                     =           50


     celldm(1)=  10.823529  celldm(2)=   0.000000  celldm(3)=   0.000000
     celldm(4)=   0.000000  celldm(5)=   0.000000  celldm(6)=   0.000000

     crystal axes: (cart. coord. in units of alat)
               a(1) = (   1.000000   0.000000   0.000000 )  
               a(2) = (   0.500000   0.866025   0.000000 )  
               a(3) = (   0.000000   0.000000   2.562439 )  

     reciprocal axes: (cart. coord. in units 2 pi/alat)
               b(1) = (  1.000000 -0.577350  0.000000 )  
               b(2) = (  0.000000  1.154701  0.000000 )  
               b(3) = (  0.000000  0.000000  0.390253 )  


     PseudoPot. # 1 for Al read from file:
     /home/yyj/SSSP_1.3.0_PBE_efficiency/Al.pbe-n-kjpaw_psl.1.0.0.UPF
     MD5 check sum: cfc449ca30b5f3223ec38ddd88ac046d
     Pseudo is Projector augmented-wave + core cor, Zval =  3.0
     Generated using "atomic" code by A. Dal Corso  v.5.1
     Shape of augmentation charge: PSQ
     Using radial grid of 1135 points,  6 beta functions with: 
                l(1) =   0
                l(2) =   0
                l(3) =   1
                l(4) =   1
                l(5) =   2
                l(6) =   2
     Q(r) pseudized with 0 coefficients 


     atomic species   valence    mass     pseudopotential
        Al             3.00    26.98154     Al( 1.00)

      6 Sym. Ops. (no inversion) found



   Cartesian axes

     site n.     atom                  positions (alat units)
         1           Al  tau(   1) = (   0.2500000   0.1443376   0.0000000  )
         2           Al  tau(   2) = (   0.7500001   0.1443376   0.0000000  )
         3           Al  tau(   3) = (   0.4999999   0.5773502   0.0000000  )
         4           Al  tau(   4) = (   1.0000000   0.5773502   0.0000000  )
         5           Al  tau(   5) = (   0.0000000   0.2886752   0.4082484  )
         6           Al  tau(   6) = (   0.4999999   0.2886752   0.4082484  )
         7           Al  tau(   7) = (   0.2500000   0.7216878   0.4082484  )
         8           Al  tau(   8) = (   0.7500001   0.7216878   0.4082484  )
         9           Al  tau(   9) = (   0.0000000   0.0000000   0.8164965  )
        10           Al  tau(  10) = (   0.4999999   0.0000000   0.8164965  )
        11           Al  tau(  11) = (   0.2500000   0.4330126   0.8164965  )
        12           Al  tau(  12) = (   0.7500001   0.4330126   0.8164965  )

     number of k points=     8  Gaussian smearing, width (Ry)=  0.0030
                       cart. coord. in units 2pi/alat
        k(    1) = (   0.0000000   0.0000000   0.0000000), wk =   0.0408163
        k(    2) = (   0.0000000   0.1649572   0.0000000), wk =   0.2448980
        k(    3) = (   0.0000000   0.3299144   0.0000000), wk =   0.2448980
        k(    4) = (   0.0000000   0.4948717   0.0000000), wk =   0.2448980
        k(    5) = (   0.1428571   0.2474358   0.0000000), wk =   0.2448980
        k(    6) = (   0.1428571   0.4123930   0.0000000), wk =   0.4897959
        k(    7) = (   0.1428571  -0.5773503   0.0000000), wk =   0.2448980
        k(    8) = (   0.2857143  -0.6598289   0.0000000), wk =   0.2448980

     Dense  grid:   176729 G-vectors     FFT dimensions: (  54,  54, 144)

     Smooth grid:    96075 G-vectors     FFT dimensions: (  45,  45, 120)

     Estimated max dynamical RAM per process >      33.47 MB

     Estimated total dynamical RAM >     803.23 MB

     Initial potential from superposition of free atoms

     starting charge      35.9725, renormalised to      36.0000
     Starting wfcs are   48 randomized atomic wfcs
     Checking if some PAW data can be deallocated... 

     total cpu time spent up to now is        0.6 secs

     Self-consistent Calculation

     iteration #  1     ecut=    40.00 Ry     beta= 0.70
     Davidson diagonalization with overlap
     ethr =  1.00E-02,  avg # of iterations =  3.2

     total cpu time spent up to now is        1.1 secs

     total energy              =    -473.43504756 Ry
     estimated scf accuracy    <       0.60491672 Ry

     iteration #  2     ecut=    40.00 Ry     beta= 0.70
     Davidson diagonalization with overlap
     ethr =  1.68E-03,  avg # of iterations =  5.2

     total cpu time spent up to now is        1.8 secs

     total energy              =    -472.88914391 Ry
     estimated scf accuracy    <       7.23753213 Ry

     iteration #  3     ecut=    40.00 Ry     beta= 0.70
     Davidson diagonalization with overlap
     ethr =  1.68E-03,  avg # of iterations =  5.1

     total cpu time spent up to now is        2.4 secs

     total energy              =    -473.81416370 Ry
     estimated scf accuracy    <       0.01648477 Ry

     iteration #  4     ecut=    40.00 Ry     beta= 0.70
     Davidson diagonalization with overlap
     ethr =  4.58E-05,  avg # of iterations =  7.2

     total cpu time spent up to now is        3.1 secs

     total energy              =    -473.80873035 Ry
     estimated scf accuracy    <       0.27548299 Ry

     iteration #  5     ecut=    40.00 Ry     beta= 0.70
     Davidson diagonalization with overlap
     ethr =  4.58E-05,  avg # of iterations =  4.9

     total cpu time spent up to now is        3.7 secs

     total energy              =    -473.82228088 Ry
     estimated scf accuracy    <       0.02256429 Ry

     iteration #  6     ecut=    40.00 Ry     beta= 0.70
     Davidson diagonalization with overlap
     ethr =  4.58E-05,  avg # of iterations =  2.0

     negative rho (up, down):  1.687E-08 0.000E+00

     total cpu time spent up to now is        4.3 secs

     total energy              =    -473.82450711 Ry
     estimated scf accuracy    <       0.00087961 Ry

     iteration #  7     ecut=    40.00 Ry     beta= 0.70
     Davidson diagonalization with overlap
     c_bands:  1 eigenvalues not converged
     ethr =  2.44E-06,  avg # of iterations =  7.5

     negative rho (up, down):  2.437E-07 0.000E+00

     total cpu time spent up to now is        4.9 secs

     total energy              =    -473.82477581 Ry
     estimated scf accuracy    <       0.00010168 Ry

     iteration #  8     ecut=    40.00 Ry     beta= 0.70
     Davidson diagonalization with overlap
     ethr =  2.82E-07,  avg # of iterations =  4.5

     negative rho (up, down):  6.465E-07 0.000E+00

     total cpu time spent up to now is        5.5 secs

     total energy              =    -473.82479170 Ry
     estimated scf accuracy    <       0.00005037 Ry

     iteration #  9     ecut=    40.00 Ry     beta= 0.70
     Davidson diagonalization with overlap
     ethr =  1.40E-07,  avg # of iterations =  2.0

     negative rho (up, down):  5.950E-07 0.000E+00

     total cpu time spent up to now is        6.0 secs

     total energy              =    -473.82479470 Ry
     estimated scf accuracy    <       0.00000925 Ry

     iteration # 10     ecut=    40.00 Ry     beta= 0.70
     Davidson diagonalization with overlap
     ethr =  2.57E-08,  avg # of iterations =  3.6

     negative rho (up, down):  5.827E-07 0.000E+00

     total cpu time spent up to now is        6.6 secs

     total energy              =    -473.82479656 Ry
     estimated scf accuracy    <       0.00000090 Ry

     iteration # 11     ecut=    40.00 Ry     beta= 0.70
     Davidson diagonalization with overlap
     ethr =  2.50E-09,  avg # of iterations =  5.2

     negative rho (up, down):  5.587E-07 0.000E+00

     total cpu time spent up to now is        7.2 secs

     total energy              =    -473.82479686 Ry
     estimated scf accuracy    <       0.00000043 Ry

     iteration # 12     ecut=    40.00 Ry     beta= 0.70
     Davidson diagonalization with overlap
     ethr =  1.21E-09,  avg # of iterations =  2.0

     negative rho (up, down):  5.660E-07 0.000E+00

     total cpu time spent up to now is        7.7 secs

     End of self-consistent calculation

          k = 0.0000 0.0000 0.0000 ( 11947 PWs)   bands (ev):

    -8.7421  -7.0359  -4.4295  -2.8926  -2.8926  -2.8926  -2.8506  -2.8506
    -2.8506  -1.4673  -1.4673  -1.4673  -1.3079  -0.9407  -0.9407  -0.9407
     1.3299   1.3299   1.3300   1.5500   1.5500   1.5500

          k = 0.0000 0.1650 0.0000 ( 11995 PWs)   bands (ev):

    -8.6197  -6.9143  -4.4014  -4.3083  -3.5744  -3.5744  -2.7405  -1.9542
    -1.9542  -1.9336  -1.9336  -1.1924  -1.1840  -0.2718  -0.2718  -0.1306
     0.6834   0.7910   0.7910   2.2874   2.3330   2.3331

          k = 0.0000 0.3299 0.0000 ( 12009 PWs)   bands (ev):

    -8.2530  -6.5504  -5.7128  -4.0458  -4.0458  -4.0326  -3.9456  -2.3898
    -2.3898  -1.4706  -0.8462  -0.8400  -0.8400   0.2076   0.2076   0.8429
     1.0224   1.0224   1.6417   2.5600   2.6297   3.0653

          k = 0.0000 0.4949 0.0000 ( 12039 PWs)   bands (ev):

    -7.6439  -6.7957  -5.9461  -5.1050  -4.2823  -4.2823  -3.3447  -2.6197
    -2.6197  -2.5124  -0.2709  -0.1797  -0.1797   0.5260   0.7199   0.7199
     2.1565   2.1565   2.3248   2.3248   2.9789   3.0684

          k = 0.1429 0.2474 0.0000 ( 12007 PWs)   bands (ev):

    -8.3751  -6.6716  -4.9957  -4.9957  -4.0663  -3.3241  -3.3241  -2.5445
    -2.4962  -1.1280  -0.9616  -0.8496  -0.8496  -0.5879   0.0437   0.0437
     1.6367   1.6367   1.6569   1.8351   2.3057   2.3057

          k = 0.1429 0.4124 0.0000 ( 12020 PWs)   bands (ev):

    -7.8872  -6.1931  -6.1875  -5.3537  -4.5078  -3.6771  -3.5845  -2.8691
    -1.9264  -1.2552  -1.2473  -1.1241  -0.5007   0.4104   1.0673   1.1814
     1.3284   1.9787   2.0252   2.0744   2.8879   2.9643

          k = 0.1429-0.5774 0.0000 ( 12059 PWs)   bands (ev):

    -7.1586  -7.1586  -5.4733  -5.4648  -5.4648  -3.7952  -2.9855  -2.8675
    -2.8675  -1.3518  -1.2312   0.1578   0.1871   0.1871   0.2142   1.2955
     1.6847   1.7081   2.4577   2.7458   2.7565   3.5120

          k = 0.2857-0.6598 0.0000 ( 12045 PWs)   bands (ev):

    -7.2798  -6.4338  -6.4338  -5.5849  -4.7463  -4.7463  -2.9864  -2.1586
    -2.1586  -1.5038  -1.4458  -0.1439   0.0733   0.1116   0.4509   0.8668
     0.8668   1.7215   2.9768   3.0831   3.3162   3.3163

     the Fermi energy is     1.8227 ev

!    total energy              =    -473.82479690 Ry
     total all-electron energy =     -5827.538176 Ry
     estimated scf accuracy    <       0.00000002 Ry
     smearing contrib. (-TS)   =      -0.00018948 Ry
     internal energy E=F+TS    =    -473.82460742 Ry

     The total energy is F=E-TS. E is the sum of the following terms:
     one-electron contribution =    -170.03987727 Ry
     hartree contribution      =      95.96372947 Ry
     xc contribution           =     -30.41284314 Ry
     ewald contribution        =      46.80299174 Ry
     one-center paw contrib.   =    -416.13860822 Ry

     convergence has been achieved in  12 iterations

     negative rho (up, down):  5.660E-07 0.000E+00

     Forces acting on atoms (cartesian axes, Ry/au):

     atom    1 type  1   force =     0.00000035    0.00000020   -0.00128707
     atom    2 type  1   force =    -0.00000035    0.00000020   -0.00128707
     atom    3 type  1   force =     0.00000000   -0.00000040   -0.00128707
     atom    4 type  1   force =     0.00000000   -0.00000000   -0.00128786
     atom    5 type  1   force =     0.00000000   -0.00000166    0.00000062
     atom    6 type  1   force =     0.00000000    0.00000000   -0.00000005
     atom    7 type  1   force =     0.00000144    0.00000083    0.00000062
     atom    8 type  1   force =    -0.00000144    0.00000083    0.00000062
     atom    9 type  1   force =     0.00000000    0.00000000    0.00128499
     atom   10 type  1   force =     0.00000000    0.00000139    0.00128742
     atom   11 type  1   force =     0.00000121   -0.00000070    0.00128742
     atom   12 type  1   force =    -0.00000121   -0.00000070    0.00128742

     Total force =     0.002574     Total SCF correction =     0.000213

     BFGS Geometry Optimization
     Energy error            =      0.0E+00 Ry
     Gradient error          =      1.3E-03 Ry/Bohr

     number of scf cycles    =   1
     number of bfgs steps    =   0

     energy             new  =    -473.8247968953 Ry

     new trust radius        =       0.0012874251 bohr
     new conv_thr            =       0.0000001000 Ry


ATOMIC_POSITIONS (angstrom)
Al            1.4318910000        0.8267030000        0.0000000000    0   0   0
Al            4.2956740000        0.8267030000        0.0000000000    0   0   0
Al            2.8637820000        3.3068110000        0.0000000000    0   0   0
Al            5.7275650000        3.3068110000        0.0000000000    0   0   0
Al            0.0000000000        1.6534051199        2.3382693292
Al            2.8637820000        1.6534060000        2.3382689738
Al            1.4318917622        4.1335144400        2.3382693292
Al            4.2956732378        4.1335144400        2.3382693292
Al            0.0000000000        0.0000000000        4.6772169866
Al            2.8637820000        0.0000007371        4.6772182756
Al            1.4318916383        2.4801076315        4.6772182756
Al            4.2956733617        2.4801076315        4.6772182756



     Writing config-only to output data dir ./output/pwscf.save/
     NEW-OLD atomic charge density approx. for the potential

     negative rho (up, down):  5.355E-07 0.000E+00

     total cpu time spent up to now is        8.3 secs

     Self-consistent Calculation

     iteration #  1     ecut=    40.00 Ry     beta= 0.70
     Davidson diagonalization with overlap
     ethr =  1.00E-06,  avg # of iterations =  2.0

     Threshold (ethr) on eigenvalues was too large:
     Diagonalizing with lowered threshold

     Davidson diagonalization with overlap
     ethr =  7.98E-09,  avg # of iterations =  2.0

     negative rho (up, down):  5.578E-07 0.000E+00

     total cpu time spent up to now is        9.3 secs

     total energy              =    -473.82480081 Ry
     estimated scf accuracy    <       0.00000309 Ry

     iteration #  2     ecut=    40.00 Ry     beta= 0.70
     Davidson diagonalization with overlap
     ethr =  8.59E-09,  avg # of iterations =  6.0

     negative rho (up, down):  5.580E-07 0.000E+00

     total cpu time spent up to now is        9.9 secs

     total energy              =    -473.82478711 Ry
     estimated scf accuracy    <       0.00027095 Ry

     iteration #  3     ecut=    40.00 Ry     beta= 0.70
     Davidson diagonalization with overlap
     ethr =  8.59E-09,  avg # of iterations =  5.8

     negative rho (up, down):  5.590E-07 0.000E+00

     total cpu time spent up to now is       10.5 secs

     total energy              =    -473.82480322 Ry
     estimated scf accuracy    <       0.00000052 Ry

     iteration #  4     ecut=    40.00 Ry     beta= 0.70
     Davidson diagonalization with overlap
     ethr =  1.45E-09,  avg # of iterations =  3.9

     negative rho (up, down):  5.667E-07 0.000E+00

     total cpu time spent up to now is       11.1 secs

     End of self-consistent calculation

          k = 0.0000 0.0000 0.0000 ( 11947 PWs)   bands (ev):

    -8.7410  -7.0352  -4.4299  -2.8915  -2.8915  -2.8915  -2.8494  -2.8494
    -2.8494  -1.4666  -1.4666  -1.4666  -1.3080  -0.9402  -0.9402  -0.9401
     1.3296   1.3296   1.3297   1.5496   1.5496   1.5496

          k = 0.0000 0.1650 0.0000 ( 11995 PWs)   bands (ev):

    -8.6186  -6.9137  -4.4003  -4.3087  -3.5733  -3.5733  -2.7398  -1.9532
    -1.9532  -1.9328  -1.9328  -1.1925  -1.1829  -0.2712  -0.2712  -0.1308
     0.6840   0.7907   0.7907   2.2866   2.3327   2.3327

          k = 0.0000 0.3299 0.0000 ( 12009 PWs)   bands (ev):

    -8.2519  -6.5498  -5.7117  -4.0447  -4.0447  -4.0319  -3.9460  -2.3891
    -2.3891  -1.4708  -0.8464  -0.8390  -0.8390   0.2075   0.2075   0.8439
     1.0230   1.0230   1.6417   2.5606   2.6289   3.0652

          k = 0.0000 0.4949 0.0000 ( 12039 PWs)   bands (ev):

    -7.6428  -6.7946  -5.9455  -5.1044  -4.2812  -4.2812  -3.3451  -2.6191
    -2.6190  -2.5127  -0.2710  -0.1797  -0.1797   0.5259   0.7208   0.7208
     2.1574   2.1574   2.3256   2.3256   2.9797   3.0683

          k = 0.1429 0.2474 0.0000 ( 12007 PWs)   bands (ev):

    -8.3740  -6.6710  -4.9946  -4.9946  -4.0667  -3.3235  -3.3234  -2.5434
    -2.4950  -1.1272  -0.9617  -0.8497  -0.8497  -0.5873   0.0446   0.0446
     1.6373   1.6374   1.6566   1.8349   2.3056   2.3056

          k = 0.1429 0.4124 0.0000 ( 12020 PWs)   bands (ev):

    -7.8861  -6.1920  -6.1869  -5.3526  -4.5072  -3.6765  -3.5848  -2.8680
    -1.9267  -1.2542  -1.2464  -1.1244  -0.5008   0.4110   1.0672   1.1824
     1.3285   1.9787   2.0259   2.0754   2.8886   2.9635

          k = 0.1429-0.5774 0.0000 ( 12059 PWs)   bands (ev):

    -7.1575  -7.1575  -5.4721  -5.4642  -5.4641  -3.7945  -2.9844  -2.8679
    -2.8679  -1.3512  -1.2315   0.1587   0.1870   0.1870   0.2153   1.2955
     1.6854   1.7082   2.4581   2.7469   2.7574   3.5116

          k = 0.2857-0.6598 0.0000 ( 12045 PWs)   bands (ev):

    -7.2787  -6.4327  -6.4327  -5.5843  -4.7456  -4.7456  -2.9867  -2.1589
    -2.1589  -1.5027  -1.4447  -0.1431   0.0732   0.1127   0.4515   0.8667
     0.8668   1.7220   2.9766   3.0827   3.3171   3.3171

     the Fermi energy is     1.8224 ev

!    total energy              =    -473.82480328 Ry
     total all-electron energy =     -5827.538182 Ry
     estimated scf accuracy    <       0.00000004 Ry
     smearing contrib. (-TS)   =      -0.00018953 Ry
     internal energy E=F+TS    =    -473.82461375 Ry

     The total energy is F=E-TS. E is the sum of the following terms:
     one-electron contribution =    -169.99280004 Ry
     hartree contribution      =      95.93972497 Ry
     xc contribution           =     -30.41223170 Ry
     ewald contribution        =      46.77921041 Ry
     one-center paw contrib.   =    -416.13851739 Ry

     convergence has been achieved in   4 iterations

     negative rho (up, down):  5.667E-07 0.000E+00

     Forces acting on atoms (cartesian axes, Ry/au):

     atom    1 type  1   force =     0.00000017    0.00000010   -0.00129654
     atom    2 type  1   force =    -0.00000017    0.00000010   -0.00129654
     atom    3 type  1   force =     0.00000000   -0.00000020   -0.00129654
     atom    4 type  1   force =     0.00000000    0.00000000   -0.00129744
     atom    5 type  1   force =     0.00000000   -0.00000070    0.00008640
     atom    6 type  1   force =     0.00000000    0.00000000    0.00008575
     atom    7 type  1   force =     0.00000061    0.00000035    0.00008640
     atom    8 type  1   force =    -0.00000061    0.00000035    0.00008640
     atom    9 type  1   force =     0.00000000    0.00000000    0.00121101
     atom   10 type  1   force =    -0.00000000    0.00000051    0.00121036
     atom   11 type  1   force =     0.00000044   -0.00000025    0.00121036
     atom   12 type  1   force =    -0.00000044   -0.00000025    0.00121036

     Total force =     0.002427     Total SCF correction =     0.000199
     Energy error            =      6.4E-06 Ry
     Gradient error          =      1.2E-03 Ry/Bohr

     number of scf cycles    =   2
     number of bfgs steps    =   1

     energy             old  =    -473.8247968953 Ry
     energy             new  =    -473.8248032828 Ry

     CASE: energy            _new < energy            _old


     WARNING: bfgs curvature condition failed, Theta= 0.850
     new trust radius        =       0.0014161676 bohr
     new conv_thr            =       0.0000000010 Ry


ATOMIC_POSITIONS (angstrom)
Al            1.4318910000        0.8267030000        0.0000000000    0   0   0
Al            4.2956740000        0.8267030000        0.0000000000    0   0   0
Al            2.8637820000        3.3068110000        0.0000000000    0   0   0
Al            5.7275650000        3.3068110000        0.0000000000    0   0   0
Al           -0.0000000000        1.6534044818        2.3383024716
Al            2.8637820000        1.6534060000        2.3383017175
Al            1.4318923148        4.1335147591        2.3383024716
Al            4.2956726852        4.1335147591        2.3383024716
Al            0.0000000000        0.0000000000        4.6779660935
Al            2.8637820000        0.0000012416        4.6779676791
Al            1.4318920753        2.4801073792        4.6779676791
Al            4.2956729247        2.4801073792        4.6779676791



     Writing config-only to output data dir ./output/pwscf.save/
     NEW-OLD atomic charge density approx. for the potential

     negative rho (up, down):  5.335E-07 0.000E+00

     total cpu time spent up to now is       11.7 secs

     Self-consistent Calculation

     iteration #  1     ecut=    40.00 Ry     beta= 0.70
     Davidson diagonalization with overlap
     ethr =  1.00E-06,  avg # of iterations =  2.0

     Threshold (ethr) on eigenvalues was too large:
     Diagonalizing with lowered threshold

     Davidson diagonalization with overlap
     ethr =  3.89E-09,  avg # of iterations =  4.2

     negative rho (up, down):  5.579E-07 0.000E+00

     total cpu time spent up to now is       12.7 secs

     total energy              =    -473.82480839 Ry
     estimated scf accuracy    <       0.00000191 Ry

     iteration #  2     ecut=    40.00 Ry     beta= 0.70
     Davidson diagonalization with overlap
     ethr =  5.31E-09,  avg # of iterations =  5.9

     negative rho (up, down):  5.581E-07 0.000E+00

     total cpu time spent up to now is       13.3 secs

     total energy              =    -473.82480166 Ry
     estimated scf accuracy    <       0.00012190 Ry

     iteration #  3     ecut=    40.00 Ry     beta= 0.70
     Davidson diagonalization with overlap
     ethr =  5.31E-09,  avg # of iterations =  6.4

     negative rho (up, down):  5.591E-07 0.000E+00

     total cpu time spent up to now is       14.0 secs

     total energy              =    -473.82480951 Ry
     estimated scf accuracy    <       0.00000318 Ry

     iteration #  4     ecut=    40.00 Ry     beta= 0.70
     Davidson diagonalization with overlap
     ethr =  5.31E-09,  avg # of iterations =  2.0

     negative rho (up, down):  5.641E-07 0.000E+00

     total cpu time spent up to now is       14.5 secs

     total energy              =    -473.82480983 Ry
     estimated scf accuracy    <       0.00000005 Ry

     iteration #  5     ecut=    40.00 Ry     beta= 0.70
     Davidson diagonalization with overlap
     ethr =  1.52E-10,  avg # of iterations =  4.5

     negative rho (up, down):  5.672E-07 0.000E+00

     total cpu time spent up to now is       15.2 secs

     total energy              =    -473.82480985 Ry
     estimated scf accuracy    <       0.00000002 Ry

     iteration #  6     ecut=    40.00 Ry     beta= 0.70
     Davidson diagonalization with overlap
     ethr =  5.39E-11,  avg # of iterations =  1.9

     negative rho (up, down):  5.675E-07 0.000E+00

     total cpu time spent up to now is       15.6 secs

     total energy              =    -473.82480985 Ry
     estimated scf accuracy    <          6.6E-09 Ry

     iteration #  7     ecut=    40.00 Ry     beta= 0.70
     Davidson diagonalization with overlap
     ethr =  1.85E-11,  avg # of iterations =  2.6

     negative rho (up, down):  5.678E-07 0.000E+00

     total cpu time spent up to now is       16.2 secs

     End of self-consistent calculation

          k = 0.0000 0.0000 0.0000 ( 11947 PWs)   bands (ev):

    -8.7398  -7.0347  -4.4303  -2.8903  -2.8903  -2.8903  -2.8482  -2.8482
    -2.8482  -1.4658  -1.4658  -1.4658  -1.3082  -0.9396  -0.9396  -0.9396
     1.3293   1.3293   1.3293   1.5492   1.5492   1.5492

          k = 0.0000 0.1650 0.0000 ( 11995 PWs)   bands (ev):

    -8.6174  -6.9131  -4.3991  -4.3091  -3.5721  -3.5721  -2.7392  -1.9522
    -1.9522  -1.9319  -1.9319  -1.1927  -1.1818  -0.2706  -0.2706  -0.1309
     0.6844   0.7904   0.7904   2.2857   2.3324   2.3324

          k = 0.0000 0.3299 0.0000 ( 12009 PWs)   bands (ev):

    -8.2507  -6.5492  -5.7106  -4.0435  -4.0435  -4.0313  -3.9464  -2.3885
    -2.3885  -1.4712  -0.8465  -0.8378  -0.8378   0.2074   0.2074   0.8450
     1.0235   1.0235   1.6417   2.5612   2.6280   3.0652

          k = 0.0000 0.4949 0.0000 ( 12039 PWs)   bands (ev):

    -7.6417  -6.7935  -5.9449  -5.1038  -4.2800  -4.2800  -3.3454  -2.6184
    -2.6184  -2.5131  -0.2712  -0.1798  -0.1798   0.5258   0.7218   0.7218
     2.1583   2.1583   2.3263   2.3263   2.9806   3.0683

          k = 0.1429 0.2474 0.0000 ( 12007 PWs)   bands (ev):

    -8.3728  -6.6704  -4.9934  -4.9934  -4.0671  -3.3228  -3.3228  -2.5422
    -2.4938  -1.1265  -0.9618  -0.8499  -0.8498  -0.5868   0.0455   0.0455
     1.6380   1.6380   1.6563   1.8346   2.3055   2.3055

          k = 0.1429 0.4124 0.0000 ( 12020 PWs)   bands (ev):

    -7.8849  -6.1908  -6.1863  -5.3514  -4.5066  -3.6758  -3.5852  -2.8668
    -1.9270  -1.2533  -1.2455  -1.1247  -0.5010   0.4116   1.0672   1.1835
     1.3285   1.9787   2.0266   2.0765   2.8892   2.9626

          k = 0.1429-0.5774 0.0000 ( 12059 PWs)   bands (ev):

    -7.1563  -7.1563  -5.4710  -5.4636  -5.4635  -3.7939  -2.9832  -2.8683
    -2.8683  -1.3505  -1.2318   0.1598   0.1869   0.1869   0.2165   1.2954
     1.6861   1.7082   2.4584   2.7480   2.7585   3.5111

          k = 0.2857-0.6598 0.0000 ( 12045 PWs)   bands (ev):

    -7.2775  -6.4315  -6.4315  -5.5837  -4.7450  -4.7450  -2.9871  -2.1593
    -2.1592  -1.5015  -1.4435  -0.1423   0.0730   0.1139   0.4520   0.8666
     0.8666   1.7225   2.9763   3.0823   3.3181   3.3181

     the Fermi energy is     1.8222 ev

!    total energy              =    -473.82480986 Ry
     total all-electron energy =     -5827.538189 Ry
     estimated scf accuracy    <          6.8E-10 Ry
     smearing contrib. (-TS)   =      -0.00018959 Ry
     internal energy E=F+TS    =    -473.82462027 Ry

     The total energy is F=E-TS. E is the sum of the following terms:
     one-electron contribution =    -169.94522815 Ry
     hartree contribution      =      95.91763947 Ry
     xc contribution           =     -30.41165347 Ry
     ewald contribution        =      46.75304552 Ry
     one-center paw contrib.   =    -416.13842364 Ry

     convergence has been achieved in   7 iterations

     negative rho (up, down):  5.678E-07 0.000E+00

     Forces acting on atoms (cartesian axes, Ry/au):

     atom    1 type  1   force =     0.00000003    0.00000002   -0.00126324
     atom    2 type  1   force =    -0.00000003    0.00000002   -0.00126324
     atom    3 type  1   force =     0.00000000   -0.00000004   -0.00126324
     atom    4 type  1   force =     0.00000000   -0.00000000   -0.00126298
     atom    5 type  1   force =     0.00000000    0.00000054    0.00016959
     atom    6 type  1   force =    -0.00000000    0.00000000    0.00016966
     atom    7 type  1   force =    -0.00000047   -0.00000027    0.00016959
     atom    8 type  1   force =     0.00000047   -0.00000027    0.00016959
     atom    9 type  1   force =     0.00000000    0.00000000    0.00109371
     atom   10 type  1   force =    -0.00000000   -0.00000044    0.00109351
     atom   11 type  1   force =    -0.00000038    0.00000022    0.00109351
     atom   12 type  1   force =     0.00000038    0.00000022    0.00109351

     Total force =     0.002213     Total SCF correction =     0.000032
     Energy error            =      6.6E-06 Ry
     Gradient error          =      1.1E-03 Ry/Bohr

     number of scf cycles    =   3
     number of bfgs steps    =   2

     energy             old  =    -473.8248032828 Ry
     energy             new  =    -473.8248098550 Ry

     CASE: energy            _new < energy            _old

     new trust radius        =       0.0021242514 bohr
     new conv_thr            =       0.0000000010 Ry


ATOMIC_POSITIONS (angstrom)
Al            1.4318910000        0.8267030000        0.0000000000    0   0   0
Al            4.2956740000        0.8267030000        0.0000000000    0   0   0
Al            2.8637820000        3.3068110000        0.0000000000    0   0   0
Al            5.7275650000        3.3068110000        0.0000000000    0   0   0
Al           -0.0000000000        1.6534044727        2.3384252654
Al            2.8637820000        1.6534060000        2.3384244605
Al            1.4318923227        4.1335147636        2.3384252654
Al            4.2956726773        4.1335147636        2.3384252654
Al            0.0000000000        0.0000000000        4.6790893234
Al            2.8637820000        0.0000012833        4.6790917845
Al            1.4318921114        2.4801073583        4.6790917845
Al            4.2956728886        2.4801073583        4.6790917845



     Writing config-only to output data dir ./output/pwscf.save/
     NEW-OLD atomic charge density approx. for the potential

     negative rho (up, down):  5.189E-07 0.000E+00

     total cpu time spent up to now is       16.8 secs

     Self-consistent Calculation

     iteration #  1     ecut=    40.00 Ry     beta= 0.70
     Davidson diagonalization with overlap
     ethr =  1.00E-06,  avg # of iterations =  2.0

     Threshold (ethr) on eigenvalues was too large:
     Diagonalizing with lowered threshold

     Davidson diagonalization with overlap
     ethr =  8.13E-10,  avg # of iterations =  6.5

     negative rho (up, down):  5.528E-07 0.000E+00

     total cpu time spent up to now is       17.9 secs

     total energy              =    -473.82481820 Ry
     estimated scf accuracy    <       0.00000095 Ry

     iteration #  2     ecut=    40.00 Ry     beta= 0.70
     Davidson diagonalization with overlap
     ethr =  2.63E-09,  avg # of iterations =  4.1

     negative rho (up, down):  5.549E-07 0.000E+00

     total cpu time spent up to now is       18.5 secs

     total energy              =    -473.82481698 Ry
     estimated scf accuracy    <       0.00001604 Ry

     iteration #  3     ecut=    40.00 Ry     beta= 0.70
     Davidson diagonalization with overlap
     ethr =  2.63E-09,  avg # of iterations =  4.8

     negative rho (up, down):  5.566E-07 0.000E+00

     total cpu time spent up to now is       19.1 secs

     total energy              =    -473.82481833 Ry
     estimated scf accuracy    <       0.00000544 Ry

     iteration #  4     ecut=    40.00 Ry     beta= 0.70
     Davidson diagonalization with overlap
     ethr =  2.63E-09,  avg # of iterations =  2.6

     negative rho (up, down):  5.616E-07 0.000E+00

     total cpu time spent up to now is       19.6 secs

     total energy              =    -473.82481874 Ry
     estimated scf accuracy    <       0.00000008 Ry

     iteration #  5     ecut=    40.00 Ry     beta= 0.70
     Davidson diagonalization with overlap
     ethr =  2.09E-10,  avg # of iterations =  3.8

     negative rho (up, down):  5.682E-07 0.000E+00

     total cpu time spent up to now is       20.2 secs

     total energy              =    -473.82481876 Ry
     estimated scf accuracy    <          6.1E-09 Ry

     iteration #  6     ecut=    40.00 Ry     beta= 0.70
     Davidson diagonalization with overlap
     ethr =  1.68E-11,  avg # of iterations =  4.1

     negative rho (up, down):  5.689E-07 0.000E+00

     total cpu time spent up to now is       20.8 secs

     total energy              =    -473.82481876 Ry
     estimated scf accuracy    <          1.3E-09 Ry

     iteration #  7     ecut=    40.00 Ry     beta= 0.70
     Davidson diagonalization with overlap
     ethr =  3.75E-12,  avg # of iterations =  3.2

     negative rho (up, down):  5.690E-07 0.000E+00

     total cpu time spent up to now is       21.3 secs

     End of self-consistent calculation

          k = 0.0000 0.0000 0.0000 ( 11947 PWs)   bands (ev):

    -8.7379  -7.0337  -4.4308  -2.8884  -2.8884  -2.8884  -2.8463  -2.8463
    -2.8463  -1.4647  -1.4647  -1.4647  -1.3083  -0.9387  -0.9387  -0.9387
     1.3288   1.3288   1.3288   1.5487   1.5487   1.5487

          k = 0.0000 0.1650 0.0000 ( 11995 PWs)   bands (ev):

    -8.6155  -6.9121  -4.3971  -4.3096  -3.5702  -3.5702  -2.7381  -1.9506
    -1.9506  -1.9305  -1.9305  -1.1929  -1.1800  -0.2697  -0.2697  -0.1311
     0.6853   0.7900   0.7900   2.2844   2.3319   2.3319

          k = 0.0000 0.3299 0.0000 ( 12009 PWs)   bands (ev):

    -8.2488  -6.5482  -5.7086  -4.0415  -4.0415  -4.0303  -3.9469  -2.3874
    -2.3874  -1.4716  -0.8467  -0.8360  -0.8360   0.2072   0.2072   0.8467
     1.0243   1.0243   1.6417   2.5622   2.6266   3.0654

          k = 0.0000 0.4949 0.0000 ( 12039 PWs)   bands (ev):

    -7.6397  -6.7916  -5.9439  -5.1028  -4.2781  -4.2781  -3.3460  -2.6174
    -2.6174  -2.5136  -0.2713  -0.1799  -0.1799   0.5256   0.7234   0.7234
     2.1598   2.1598   2.3277   2.3277   2.9822   3.0683

          k = 0.1429 0.2474 0.0000 ( 12007 PWs)   bands (ev):

    -8.3709  -6.6694  -4.9915  -4.9915  -4.0676  -3.3218  -3.3218  -2.5403
    -2.4919  -1.1253  -0.9620  -0.8500  -0.8500  -0.5859   0.0471   0.0471
     1.6390   1.6390   1.6558   1.8342   2.3054   2.3054

          k = 0.1429 0.4124 0.0000 ( 12020 PWs)   bands (ev):

    -7.8830  -6.1889  -6.1853  -5.3495  -4.5055  -3.6748  -3.5858  -2.8648
    -1.9275  -1.2518  -1.2440  -1.1251  -0.5011   0.4125   1.0672   1.1852
     1.3286   1.9788   2.0279   2.0783   2.8903   2.9613

          k = 0.1429-0.5774 0.0000 ( 12059 PWs)   bands (ev):

    -7.1544  -7.1544  -5.4690  -5.4625  -5.4625  -3.7929  -2.9813  -2.8688
    -2.8688  -1.3494  -1.2323   0.1615   0.1867   0.1867   0.2185   1.2954
     1.6873   1.7083   2.4590   2.7499   2.7602   3.5105

          k = 0.2857-0.6598 0.0000 ( 12045 PWs)   bands (ev):

    -7.2756  -6.4296  -6.4296  -5.5827  -4.7440  -4.7440  -2.9877  -2.1598
    -2.1598  -1.4995  -1.4415  -0.1411   0.0729   0.1158   0.4529   0.8665
     0.8665   1.7233   2.9760   3.0817   3.3198   3.3198

     the Fermi energy is     1.8218 ev

!    total energy              =    -473.82481876 Ry
     total all-electron energy =     -5827.538198 Ry
     estimated scf accuracy    <          7.8E-11 Ry
     smearing contrib. (-TS)   =      -0.00018969 Ry
     internal energy E=F+TS    =    -473.82462907 Ry

     The total energy is F=E-TS. E is the sum of the following terms:
     one-electron contribution =    -169.86967522 Ry
     hartree contribution      =      95.88019465 Ry
     xc contribution           =     -30.41068455 Ry
     ewald contribution        =      46.71380991 Ry
     one-center paw contrib.   =    -416.13827387 Ry

     convergence has been achieved in   7 iterations

     negative rho (up, down):  5.690E-07 0.000E+00

     Forces acting on atoms (cartesian axes, Ry/au):

     atom    1 type  1   force =     0.00000004    0.00000002   -0.00123600
     atom    2 type  1   force =    -0.00000004    0.00000002   -0.00123600
     atom    3 type  1   force =     0.00000000   -0.00000004   -0.00123600
     atom    4 type  1   force =     0.00000000    0.00000000   -0.00123593
     atom    5 type  1   force =     0.00000000    0.00000050    0.00027879
     atom    6 type  1   force =     0.00000000   -0.00000000    0.00027884
     atom    7 type  1   force =    -0.00000043   -0.00000025    0.00027879
     atom    8 type  1   force =     0.00000043   -0.00000025    0.00027879
     atom    9 type  1   force =     0.00000000    0.00000000    0.00095750
     atom   10 type  1   force =     0.00000000   -0.00000037    0.00095708
     atom   11 type  1   force =    -0.00000032    0.00000019    0.00095708
     atom   12 type  1   force =     0.00000032    0.00000019    0.00095708

     Total force =     0.001994     Total SCF correction =     0.000007
     Energy error            =      8.9E-06 Ry
     Gradient error          =      9.6E-04 Ry/Bohr

     number of scf cycles    =   4
     number of bfgs steps    =   3

     energy             old  =    -473.8248098550 Ry
     energy             new  =    -473.8248187588 Ry

     CASE: energy            _new < energy            _old

     new trust radius        =       0.0031863771 bohr
     new conv_thr            =       0.0000000010 Ry


ATOMIC_POSITIONS (angstrom)
Al            1.4318910000        0.8267030000        0.0000000000    0   0   0
Al            4.2956740000        0.8267030000        0.0000000000    0   0   0
Al            2.8637820000        3.3068110000        0.0000000000    0   0   0
Al            5.7275650000        3.3068110000        0.0000000000    0   0   0
Al           -0.0000000000        1.6534043583        2.3387098223
Al            2.8637820000        1.6534060000        2.3387088951
Al            1.4318924218        4.1335148209        2.3387098223
Al            4.2956725782        4.1335148209        2.3387098223
Al            0.0000000000        0.0000000000        4.6807742512
Al            2.8637820000        0.0000014481        4.6807779426
Al            1.4318922541        2.4801072760        4.6807779426
Al            4.2956727459        2.4801072760        4.6807779426



     Writing config-only to output data dir ./output/pwscf.save/
     NEW-OLD atomic charge density approx. for the potential

     negative rho (up, down):  4.984E-07 0.000E+00

     total cpu time spent up to now is       21.9 secs

     Self-consistent Calculation

     iteration #  1     ecut=    40.00 Ry     beta= 0.70
     Davidson diagonalization with overlap
     ethr =  1.00E-06,  avg # of iterations =  2.0

     Threshold (ethr) on eigenvalues was too large:
     Diagonalizing with lowered threshold

     Davidson diagonalization with overlap
     ethr =  2.19E-09,  avg # of iterations =  6.1

     negative rho (up, down):  5.469E-07 0.000E+00

     total cpu time spent up to now is       23.0 secs

     total energy              =    -473.82482963 Ry
     estimated scf accuracy    <       0.00000148 Ry

     iteration #  2     ecut=    40.00 Ry     beta= 0.70
     Davidson diagonalization with overlap
     ethr =  4.11E-09,  avg # of iterations =  4.6

     negative rho (up, down):  5.492E-07 0.000E+00

     total cpu time spent up to now is       23.6 secs

     total energy              =    -473.82482740 Ry
     estimated scf accuracy    <       0.00002900 Ry

     iteration #  3     ecut=    40.00 Ry     beta= 0.70
     Davidson diagonalization with overlap
     ethr =  4.11E-09,  avg # of iterations =  5.9

     negative rho (up, down):  5.521E-07 0.000E+00

     total cpu time spent up to now is       24.2 secs

     total energy              =    -473.82482975 Ry
     estimated scf accuracy    <       0.00000891 Ry

     iteration #  4     ecut=    40.00 Ry     beta= 0.70
     Davidson diagonalization with overlap
     ethr =  4.11E-09,  avg # of iterations =  3.0

     negative rho (up, down):  5.599E-07 0.000E+00

     total cpu time spent up to now is       24.8 secs

     total energy              =    -473.82483044 Ry
     estimated scf accuracy    <       0.00000019 Ry

     iteration #  5     ecut=    40.00 Ry     beta= 0.70
     Davidson diagonalization with overlap
     ethr =  5.22E-10,  avg # of iterations =  2.4

     negative rho (up, down):  5.698E-07 0.000E+00

     total cpu time spent up to now is       25.3 secs

     total energy              =    -473.82483048 Ry
     estimated scf accuracy    <       0.00000001 Ry

     iteration #  6     ecut=    40.00 Ry     beta= 0.70
     Davidson diagonalization with overlap
     ethr =  3.16E-11,  avg # of iterations =  5.1

     negative rho (up, down):  5.704E-07 0.000E+00

     total cpu time spent up to now is       25.9 secs

     total energy              =    -473.82483049 Ry
     estimated scf accuracy    <          6.4E-09 Ry

     iteration #  7     ecut=    40.00 Ry     beta= 0.70
     Davidson diagonalization with overlap
     ethr =  1.77E-11,  avg # of iterations =  2.0

     negative rho (up, down):  5.707E-07 0.000E+00

     total cpu time spent up to now is       26.4 secs

     End of self-consistent calculation

          k = 0.0000 0.0000 0.0000 ( 11947 PWs)   bands (ev):

    -8.7351  -7.0321  -4.4317  -2.8854  -2.8854  -2.8854  -2.8434  -2.8434
    -2.8434  -1.4629  -1.4629  -1.4629  -1.3086  -0.9373  -0.9373  -0.9373
     1.3281   1.3281   1.3281   1.5479   1.5479   1.5479

          k = 0.0000 0.1650 0.0000 ( 11995 PWs)   bands (ev):

    -8.6126  -6.9106  -4.3942  -4.3104  -3.5672  -3.5672  -2.7365  -1.9482
    -1.9482  -1.9284  -1.9284  -1.1931  -1.1773  -0.2682  -0.2682  -0.1314
     0.6865   0.7893   0.7893   2.2824   2.3312   2.3312

          k = 0.0000 0.3299 0.0000 ( 12009 PWs)   bands (ev):

    -8.2459  -6.5467  -5.7058  -4.0386  -4.0386  -4.0287  -3.9477  -2.3858
    -2.3858  -1.4723  -0.8470  -0.8333  -0.8333   0.2070   0.2070   0.8493
     1.0256   1.0256   1.6418   2.5638   2.6246   3.0656

          k = 0.0000 0.4949 0.0000 ( 12039 PWs)   bands (ev):

    -7.6369  -6.7887  -5.9424  -5.1012  -4.2752  -4.2752  -3.3468  -2.6157
    -2.6157  -2.5144  -0.2716  -0.1800  -0.1800   0.5254   0.7258   0.7258
     2.1621   2.1621   2.3296   2.3296   2.9846   3.0683

          k = 0.1429 0.2474 0.0000 ( 12007 PWs)   bands (ev):

    -8.3680  -6.6679  -4.9886  -4.9886  -4.0684  -3.3202  -3.3202  -2.5374
    -2.4890  -1.1235  -0.9623  -0.8502  -0.8501  -0.5845   0.0495   0.0495
     1.6405   1.6405   1.6552   1.8336   2.3053   2.3053

          k = 0.1429 0.4124 0.0000 ( 12020 PWs)   bands (ev):

    -7.8802  -6.1860  -6.1837  -5.3466  -4.5040  -3.6732  -3.5866  -2.8619
    -1.9283  -1.2496  -1.2416  -1.1258  -0.5014   0.4140   1.0671   1.1878
     1.3289   1.9789   2.0297   2.0809   2.8918   2.9594

          k = 0.1429-0.5774 0.0000 ( 12059 PWs)   bands (ev):

    -7.1516  -7.1516  -5.4662  -5.4610  -5.4610  -3.7913  -2.9784  -2.8696
    -2.8696  -1.3477  -1.2330   0.1640   0.1865   0.1865   0.2214   1.2955
     1.6890   1.7085   2.4599   2.7526   2.7628   3.5095

          k = 0.2857-0.6598 0.0000 ( 12045 PWs)   bands (ev):

    -7.2727  -6.4267  -6.4267  -5.5811  -4.7424  -4.7424  -2.9884  -2.1605
    -2.1605  -1.4966  -1.4386  -0.1392   0.0727   0.1188   0.4543   0.8663
     0.8663   1.7246   2.9756   3.0809   3.3223   3.3223

     the Fermi energy is     1.8212 ev

!    total energy              =    -473.82483049 Ry
     total all-electron energy =     -5827.538209 Ry
     estimated scf accuracy    <          9.7E-10 Ry
     smearing contrib. (-TS)   =      -0.00018986 Ry
     internal energy E=F+TS    =    -473.82464063 Ry

     The total energy is F=E-TS. E is the sum of the following terms:
     one-electron contribution =    -169.75689204 Ry
     hartree contribution      =      95.82457352 Ry
     xc contribution           =     -30.40924310 Ry
     ewald contribution        =      46.65497279 Ry
     one-center paw contrib.   =    -416.13805180 Ry

     convergence has been achieved in   7 iterations

     negative rho (up, down):  5.707E-07 0.000E+00

     Forces acting on atoms (cartesian axes, Ry/au):

     atom    1 type  1   force =     0.00000001    0.00000001   -0.00117630
     atom    2 type  1   force =    -0.00000001    0.00000001   -0.00117630
     atom    3 type  1   force =     0.00000000   -0.00000001   -0.00117630
     atom    4 type  1   force =     0.00000000   -0.00000000   -0.00117607
     atom    5 type  1   force =     0.00000000    0.00000049    0.00041521
     atom    6 type  1   force =     0.00000000    0.00000000    0.00041542
     atom    7 type  1   force =    -0.00000042   -0.00000025    0.00041521
     atom    8 type  1   force =     0.00000042   -0.00000025    0.00041521
     atom    9 type  1   force =     0.00000000    0.00000000    0.00076151
     atom   10 type  1   force =     0.00000000   -0.00000040    0.00076080
     atom   11 type  1   force =    -0.00000035    0.00000020    0.00076080
     atom   12 type  1   force =     0.00000035    0.00000020    0.00076080

     Total force =     0.001734     Total SCF correction =     0.000042
     Energy error            =      1.2E-05 Ry
     Gradient error          =      7.6E-04 Ry/Bohr

     number of scf cycles    =   5
     number of bfgs steps    =   4

     energy             old  =    -473.8248187588 Ry
     energy             new  =    -473.8248304861 Ry

     CASE: energy            _new < energy            _old

     new trust radius        =       0.0047795657 bohr
     new conv_thr            =       0.0000000010 Ry


ATOMIC_POSITIONS (angstrom)
Al            1.4318910000        0.8267030000        0.0000000000    0   0   0
Al            4.2956740000        0.8267030000        0.0000000000    0   0   0
Al            2.8637820000        3.3068110000        0.0000000000    0   0   0
Al            5.7275650000        3.3068110000        0.0000000000    0   0   0
Al            0.0000000000        1.6534040977        2.3392869173
Al            2.8637820000        1.6534060000        2.3392859017
Al            1.4318926475        4.1335149512        2.3392869173
Al            4.2956723525        4.1335149512        2.3392869173
Al            0.0000000000        0.0000000000        4.6833017785
Al            2.8637820000        0.0000017451        4.6833071798
Al            1.4318925113        2.4801071274        4.6833071798
Al            4.2956724887        2.4801071274        4.6833071798



     Writing config-only to output data dir ./output/pwscf.save/
     NEW-OLD atomic charge density approx. for the potential

     negative rho (up, down):  4.699E-07 0.000E+00

     total cpu time spent up to now is       27.1 secs

     Self-consistent Calculation

     iteration #  1     ecut=    40.00 Ry     beta= 0.70
     Davidson diagonalization with overlap
     ethr =  1.00E-06,  avg # of iterations =  2.0

     Threshold (ethr) on eigenvalues was too large:
     Diagonalizing with lowered threshold

     Davidson diagonalization with overlap
     ethr =  3.70E-09,  avg # of iterations =  6.6

     negative rho (up, down):  5.401E-07 0.000E+00

     total cpu time spent up to now is       28.3 secs

     total energy              =    -473.82484180 Ry
     estimated scf accuracy    <       0.00000433 Ry

     iteration #  2     ecut=    40.00 Ry     beta= 0.70
     Davidson diagonalization with overlap
     ethr =  1.20E-08,  avg # of iterations =  5.5

     negative rho (up, down):  5.428E-07 0.000E+00

     total cpu time spent up to now is       28.9 secs

     total energy              =    -473.82483168 Ry
     estimated scf accuracy    <       0.00015627 Ry

     iteration #  3     ecut=    40.00 Ry     beta= 0.70
     Davidson diagonalization with overlap
     ethr =  1.20E-08,  avg # of iterations =  6.2

     negative rho (up, down):  5.476E-07 0.000E+00

     total cpu time spent up to now is       29.5 secs

     total energy              =    -473.82484293 Ry
     estimated scf accuracy    <       0.00001693 Ry

     iteration #  4     ecut=    40.00 Ry     beta= 0.70
     Davidson diagonalization with overlap
     ethr =  1.20E-08,  avg # of iterations =  2.1

     negative rho (up, down):  5.596E-07 0.000E+00

     total cpu time spent up to now is       30.1 secs

     total energy              =    -473.82484448 Ry
     estimated scf accuracy    <       0.00000026 Ry

     iteration #  5     ecut=    40.00 Ry     beta= 0.70
     Davidson diagonalization with overlap
     ethr =  7.32E-10,  avg # of iterations =  3.8

     negative rho (up, down):  5.736E-07 0.000E+00

     total cpu time spent up to now is       30.6 secs

     total energy              =    -473.82484456 Ry
     estimated scf accuracy    <       0.00000003 Ry

     iteration #  6     ecut=    40.00 Ry     beta= 0.70
     Davidson diagonalization with overlap
     ethr =  9.42E-11,  avg # of iterations =  3.6

     negative rho (up, down):  5.750E-07 0.000E+00

     total cpu time spent up to now is       31.2 secs

     total energy              =    -473.82484457 Ry
     estimated scf accuracy    <          9.7E-09 Ry

     iteration #  7     ecut=    40.00 Ry     beta= 0.70
     Davidson diagonalization with overlap
     ethr =  2.70E-11,  avg # of iterations =  2.9

     negative rho (up, down):  5.752E-07 0.000E+00

     total cpu time spent up to now is       31.8 secs

     End of self-consistent calculation

          k = 0.0000 0.0000 0.0000 ( 11947 PWs)   bands (ev):

    -8.7308  -7.0299  -4.4329  -2.8811  -2.8811  -2.8811  -2.8391  -2.8391
    -2.8391  -1.4602  -1.4602  -1.4602  -1.3091  -0.9353  -0.9353  -0.9353
     1.3270   1.3270   1.3270   1.5467   1.5467   1.5467

          k = 0.0000 0.1650 0.0000 ( 11995 PWs)   bands (ev):

    -8.6084  -6.9083  -4.3899  -4.3117  -3.5629  -3.5629  -2.7341  -1.9447
    -1.9447  -1.9251  -1.9251  -1.1936  -1.1732  -0.2661  -0.2661  -0.1318
     0.6884   0.7883   0.7883   2.2793   2.3302   2.3302

          k = 0.0000 0.3299 0.0000 ( 12009 PWs)   bands (ev):

    -8.2417  -6.5444  -5.7015  -4.0343  -4.0343  -4.0264  -3.9489  -2.3834
    -2.3834  -1.4733  -0.8474  -0.8293  -0.8293   0.2067   0.2067   0.8532
     1.0275   1.0275   1.6419   2.5662   2.6217   3.0660

          k = 0.0000 0.4949 0.0000 ( 12039 PWs)   bands (ev):

    -7.6326  -6.7844  -5.9401  -5.0989  -4.2709  -4.2709  -3.3480  -2.6134
    -2.6134  -2.5156  -0.2720  -0.1802  -0.1802   0.5251   0.7294   0.7294
     2.1655   2.1655   2.3326   2.3326   2.9883   3.0683

          k = 0.1429 0.2474 0.0000 ( 12007 PWs)   bands (ev):

    -8.3638  -6.6656  -4.9843  -4.9843  -4.0697  -3.3178  -3.3178  -2.5330
    -2.4846  -1.1208  -0.9627  -0.8504  -0.8504  -0.5824   0.0530   0.0530
     1.6428   1.6428   1.6541   1.8328   2.3051   2.3051

          k = 0.1429 0.4124 0.0000 ( 12020 PWs)   bands (ev):

    -7.8759  -6.1817  -6.1815  -5.3423  -4.5017  -3.6709  -3.5878  -2.8576
    -1.9294  -1.2465  -1.2378  -1.1268  -0.5018   0.4162   1.0671   1.1917
     1.3291   1.9790   2.0325   2.0849   2.8942   2.9565

          k = 0.1429-0.5774 0.0000 ( 12059 PWs)   bands (ev):

    -7.1473  -7.1473  -5.4619  -5.4587  -5.4587  -3.7889  -2.9740  -2.8708
    -2.8707  -1.3453  -1.2340   0.1678   0.1861   0.1861   0.2258   1.2955
     1.6916   1.7088   2.4613   2.7567   2.7667   3.5081

          k = 0.2857-0.6598 0.0000 ( 12045 PWs)   bands (ev):

    -7.2685  -6.4224  -6.4224  -5.5788  -4.7401  -4.7401  -2.9896  -2.1617
    -2.1617  -1.4922  -1.4343  -0.1363   0.0723   0.1231   0.4563   0.8661
     0.8661   1.7264   2.9749   3.0796   3.3260   3.3260

     the Fermi energy is     1.8204 ev

!    total energy              =    -473.82484457 Ry
     total all-electron energy =     -5827.538224 Ry
     estimated scf accuracy    <          2.6E-10 Ry
     smearing contrib. (-TS)   =      -0.00019019 Ry
     internal energy E=F+TS    =    -473.82465438 Ry

     The total energy is F=E-TS. E is the sum of the following terms:
     one-electron contribution =    -169.58767774 Ry
     hartree contribution      =      95.74107284 Ry
     xc contribution           =     -30.40708299 Ry
     ewald contribution        =      46.56675261 Ry
     one-center paw contrib.   =    -416.13771910 Ry

     convergence has been achieved in   7 iterations

     negative rho (up, down):  5.752E-07 0.000E+00

     Forces acting on atoms (cartesian axes, Ry/au):

     atom    1 type  1   force =     0.00000001    0.00000001   -0.00107214
     atom    2 type  1   force =    -0.00000001    0.00000001   -0.00107214
     atom    3 type  1   force =     0.00000000   -0.00000001   -0.00107214
     atom    4 type  1   force =     0.00000000   -0.00000000   -0.00107218
     atom    5 type  1   force =     0.00000000    0.00000068    0.00058516
     atom    6 type  1   force =     0.00000000    0.00000000    0.00058517
     atom    7 type  1   force =    -0.00000059   -0.00000034    0.00058516
     atom    8 type  1   force =     0.00000059   -0.00000034    0.00058516
     atom    9 type  1   force =     0.00000000    0.00000000    0.00048768
     atom   10 type  1   force =     0.00000000   -0.00000065    0.00048675
     atom   11 type  1   force =    -0.00000056    0.00000032    0.00048675
     atom   12 type  1   force =     0.00000056    0.00000032    0.00048675

     Total force =     0.001523     Total SCF correction =     0.000012
     Energy error            =      1.4E-05 Ry
     Gradient error          =      5.9E-04 Ry/Bohr

     bfgs converged in   6 scf cycles and   5 bfgs steps
     (criteria: energy <  1.0E-04 Ry, force <  7.0E-04 Ry/Bohr)

     End of BFGS Geometry Optimization

     Final energy             =    -473.8248445734 Ry

     File ./output/pwscf.bfgs deleted, as requested
Begin final coordinates

ATOMIC_POSITIONS (angstrom)
Al            1.4318910000        0.8267030000        0.0000000000    0   0   0
Al            4.2956740000        0.8267030000        0.0000000000    0   0   0
Al            2.8637820000        3.3068110000        0.0000000000    0   0   0
Al            5.7275650000        3.3068110000        0.0000000000    0   0   0
Al            0.0000000000        1.6534040977        2.3392869173
Al            2.8637820000        1.6534060000        2.3392859017
Al            1.4318926475        4.1335149512        2.3392869173
Al            4.2956723525        4.1335149512        2.3392869173
Al            0.0000000000        0.0000000000        4.6833017785
Al            2.8637820000        0.0000017451        4.6833071798
Al            1.4318925113        2.4801071274        4.6833071798
Al            4.2956724887        2.4801071274        4.6833071798
End final coordinates



     Writing all to output data dir ./output/pwscf.save/
 
     init_run     :      0.40s CPU      0.43s WALL (       1 calls)
     electrons    :     27.72s CPU     28.51s WALL (       6 calls)
     update_pot   :      1.29s CPU      1.30s WALL (       5 calls)
     forces       :      0.82s CPU      0.84s WALL (       6 calls)

     Called by init_run:
     wfcinit      :      0.13s CPU      0.13s WALL (       1 calls)
     potinit      :      0.10s CPU      0.11s WALL (       1 calls)
     hinit0       :      0.06s CPU      0.07s WALL (       1 calls)

     Called by electrons:
     c_bands      :     20.41s CPU     20.62s WALL (      49 calls)
     sum_band     :      2.52s CPU      2.60s WALL (      49 calls)
     v_of_rho     :      0.35s CPU      0.39s WALL (      50 calls)
     newd         :      1.04s CPU      1.07s WALL (      50 calls)
     PAW_pot      :      4.29s CPU      4.32s WALL (      55 calls)
     mix_rho      :      0.05s CPU      0.06s WALL (      49 calls)

     Called by c_bands:
     init_us_2    :      0.31s CPU      0.32s WALL (     880 calls)
     init_us_2:cp :      0.30s CPU      0.32s WALL (     880 calls)
     cegterg      :     17.45s CPU     17.62s WALL (     392 calls)

     Called by *egterg:
     cdiaghg      :      1.16s CPU      1.17s WALL (    1886 calls)
     h_psi        :     14.57s CPU     14.72s WALL (    1974 calls)
     s_psi        :      0.65s CPU      0.66s WALL (    1974 calls)
     g_psi        :      0.03s CPU      0.03s WALL (    1574 calls)

     Called by h_psi:
     h_psi:calbec :      0.80s CPU      0.81s WALL (    1974 calls)
     vloc_psi     :     13.03s CPU     13.15s WALL (    1974 calls)
     add_vuspsi   :      0.70s CPU      0.71s WALL (    1974 calls)

     General routines
     calbec       :      1.13s CPU      1.16s WALL (    2598 calls)
     fft          :      0.73s CPU      0.76s WALL (     714 calls)
     ffts         :      0.02s CPU      0.02s WALL (      99 calls)
     fftw         :     13.34s CPU     13.48s WALL (   60338 calls)
     interpolate  :      0.03s CPU      0.03s WALL (      50 calls)
 
     Parallel routines
 
     PWSCF        :     30.96s CPU     32.64s WALL

 
   This run was terminated on:  11:11:22  17Jun2023            

=------------------------------------------------------------------------------=
   JOB DONE.
=------------------------------------------------------------------------------=
