  65  65   0   0
  0.5269013E+02  0.1121440E-08  0.1121440E-08  0.3144560E-08  0.1500000E-16
  1.000000000000000E-004
  CAR 
 Pt                                      
      5.15150161    -11.25093029  301     -0.95991647      1.00000000
    -11.251  0.0000E+00  0.0000E+00
    -11.196  0.0000E+00  0.0000E+00
    -11.142  0.0000E+00  0.0000E+00
    -11.087 -0.2942E-32 -0.1608E-33
    -11.032 -0.1903E-28 -0.1040E-29
    -10.978 -0.6735E-25 -0.3684E-26
    -10.923 -0.1304E-21 -0.7132E-23
    -10.868 -0.1379E-18 -0.7544E-20
    -10.814 -0.7702E-16 -0.4219E-17
    -10.759 -0.2402E-13 -0.1317E-14
    -10.704 -0.4054E-11 -0.2230E-12
    -10.650 -0.3684E-09 -0.2036E-10
    -10.595 -0.1785E-07 -0.9963E-09
    -10.540 -0.4534E-06 -0.2578E-07
    -10.485 -0.5833E-05 -0.3447E-06
    -10.431 -0.3495E-04 -0.2255E-05
    -10.376 -0.7083E-04 -0.6128E-05
    -10.321  0.1010E-03 -0.6078E-06
    -10.267  0.5696E-03  0.3054E-04
    -10.212  0.1378E-02  0.1059E-03
    -10.157  0.4110E-02  0.3306E-03
    -10.103  0.7286E-02  0.7290E-03
    -10.048  0.5393E-02  0.1024E-02
     -9.993  0.8908E-03  0.1073E-02
     -9.939  0.2349E-03  0.1085E-02
     -9.884  0.4109E-02  0.1310E-02
     -9.829  0.7497E-02  0.1720E-02
     -9.775  0.7766E-02  0.2144E-02
     -9.720  0.7767E-02  0.2569E-02
     -9.665  0.5452E-02  0.2867E-02
     -9.611  0.1291E-02  0.2938E-02
     -9.556 -0.6629E-03  0.2902E-02
     -9.501 -0.9774E-03  0.2848E-02
     -9.447  0.1392E-02  0.2924E-02
     -9.392  0.9421E-02  0.3439E-02
     -9.337  0.1475E-01  0.4246E-02
     -9.283  0.8508E-02  0.4711E-02
     -9.228  0.1658E-02  0.4801E-02
     -9.173  0.3607E-02  0.4999E-02
     -9.119  0.7122E-02  0.5388E-02
     -9.064  0.4679E-02  0.5644E-02
     -9.009  0.7455E-03  0.5685E-02
     -8.955 -0.2149E-03  0.5673E-02
     -8.900  0.9568E-03  0.5725E-02
     -8.845  0.6663E-02  0.6089E-02
     -8.791  0.1632E-01  0.6982E-02
     -8.736  0.2131E-01  0.8147E-02
     -8.681  0.1712E-01  0.9083E-02
     -8.627  0.8186E-02  0.9530E-02
     -8.572  0.5168E-02  0.9813E-02
     -8.517  0.9307E-02  0.1032E-01
     -8.463  0.1444E-01  0.1111E-01
     -8.408  0.1432E-01  0.1189E-01
     -8.353  0.6656E-02  0.1226E-01
     -8.298 -0.2871E-03  0.1224E-01
     -8.244 -0.2139E-02  0.1213E-01
     -8.189  0.3100E-02  0.1229E-01
     -8.134  0.2011E-01  0.1339E-01
     -8.080  0.3639E-01  0.1538E-01
     -8.025  0.3125E-01  0.1709E-01
     -7.970  0.1430E-01  0.1787E-01
     -7.916  0.9824E-02  0.1841E-01
     -7.861  0.1311E-01  0.1913E-01
     -7.806  0.8685E-02  0.1960E-01
     -7.752  0.2509E-02  0.1974E-01
     -7.697  0.5514E-02  0.2004E-01
     -7.642  0.2229E-01  0.2126E-01
     -7.588  0.4859E-01  0.2392E-01
     -7.533  0.6360E-01  0.2739E-01
     -7.478  0.6173E-01  0.3077E-01
     -7.424  0.5880E-01  0.3398E-01
     -7.369  0.5033E-01  0.3674E-01
     -7.314  0.3642E-01  0.3873E-01
     -7.260  0.4295E-01  0.4108E-01
     -7.205  0.7249E-01  0.4504E-01
     -7.150  0.9166E-01  0.5005E-01
     -7.096  0.7402E-01  0.5410E-01
     -7.041  0.4925E-01  0.5679E-01
     -6.986  0.5442E-01  0.5977E-01
     -6.932  0.6898E-01  0.6354E-01
     -6.877  0.7517E-01  0.6765E-01
     -6.822  0.8094E-01  0.7207E-01
     -6.768  0.8066E-01  0.7648E-01
     -6.713  0.8279E-01  0.8101E-01
     -6.658  0.1012E+00  0.8654E-01
     -6.604  0.1217E+00  0.9319E-01
     -6.549  0.1268E+00  0.1001E+00
     -6.494  0.1262E+00  0.1070E+00
     -6.440  0.1183E+00  0.1135E+00
     -6.385  0.1052E+00  0.1192E+00
     -6.330  0.1112E+00  0.1253E+00
     -6.276  0.1270E+00  0.1323E+00
     -6.221  0.1183E+00  0.1387E+00
     -6.166  0.9619E-01  0.1440E+00
     -6.112  0.8738E-01  0.1488E+00
     -6.057  0.8282E-01  0.1533E+00
     -6.002  0.8142E-01  0.1577E+00
     -5.947  0.8275E-01  0.1623E+00
     -5.893  0.7036E-01  0.1661E+00
     -5.838  0.4537E-01  0.1686E+00
     -5.783  0.3929E-01  0.1707E+00
     -5.729  0.7025E-01  0.1746E+00
     -5.674  0.1106E+00  0.1806E+00
     -5.619  0.1272E+00  0.1876E+00
     -5.565  0.1180E+00  0.1940E+00
     -5.510  0.1011E+00  0.1996E+00
     -5.455  0.9028E-01  0.2045E+00
     -5.401  0.8966E-01  0.2094E+00
     -5.346  0.9628E-01  0.2147E+00
     -5.291  0.1034E+00  0.2203E+00
     -5.237  0.1118E+00  0.2264E+00
     -5.182  0.1167E+00  0.2328E+00
     -5.127  0.1080E+00  0.2387E+00
     -5.073  0.9564E-01  0.2440E+00
     -5.018  0.9466E-01  0.2491E+00
     -4.963  0.9102E-01  0.2541E+00
     -4.909  0.7377E-01  0.2581E+00
     -4.854  0.6815E-01  0.2619E+00
     -4.799  0.9187E-01  0.2669E+00
     -4.745  0.1147E+00  0.2732E+00
     -4.690  0.1153E+00  0.2795E+00
     -4.635  0.1161E+00  0.2858E+00
     -4.581  0.1345E+00  0.2932E+00
     -4.526  0.1554E+00  0.3017E+00
     -4.471  0.1667E+00  0.3108E+00
     -4.417  0.1654E+00  0.3198E+00
     -4.362  0.1446E+00  0.3277E+00
     -4.307  0.1144E+00  0.3340E+00
     -4.253  0.1118E+00  0.3401E+00
     -4.198  0.1510E+00  0.3483E+00
     -4.143  0.1912E+00  0.3588E+00
     -4.089  0.1910E+00  0.3692E+00
     -4.034  0.1798E+00  0.3791E+00
     -3.979  0.1872E+00  0.3893E+00
     -3.925  0.1837E+00  0.3993E+00
     -3.870  0.1737E+00  0.4088E+00
     -3.815  0.1771E+00  0.4185E+00
     -3.760  0.1796E+00  0.4283E+00
     -3.706  0.1803E+00  0.4382E+00
     -3.651  0.1801E+00  0.4480E+00
     -3.596  0.1536E+00  0.4564E+00
     -3.542  0.1108E+00  0.4625E+00
     -3.487  0.9335E-01  0.4676E+00
     -3.432  0.9403E-01  0.4727E+00
     -3.378  0.9116E-01  0.4777E+00
     -3.323  0.9266E-01  0.4828E+00
     -3.268  0.9556E-01  0.4880E+00
     -3.214  0.8409E-01  0.4926E+00
     -3.159  0.7068E-01  0.4965E+00
     -3.104  0.9237E-01  0.5015E+00
     -3.050  0.1474E+00  0.5096E+00
     -2.995  0.1899E+00  0.5200E+00
     -2.940  0.1928E+00  0.5305E+00
     -2.886  0.1589E+00  0.5392E+00
     -2.831  0.1177E+00  0.5456E+00
     -2.776  0.9823E-01  0.5510E+00
     -2.722  0.9266E-01  0.5561E+00
     -2.667  0.9250E-01  0.5611E+00
     -2.612  0.9456E-01  0.5663E+00
     -2.558  0.9612E-01  0.5716E+00
     -2.503  0.1050E+00  0.5773E+00
     -2.448  0.1091E+00  0.5833E+00
     -2.394  0.9832E-01  0.5886E+00
     -2.339  0.1016E+00  0.5942E+00
     -2.284  0.1253E+00  0.6010E+00
     -2.230  0.1303E+00  0.6082E+00
     -2.175  0.1218E+00  0.6148E+00
     -2.120  0.1473E+00  0.6229E+00
     -2.066  0.1836E+00  0.6329E+00
     -2.011  0.1808E+00  0.6428E+00
     -1.956  0.1637E+00  0.6518E+00
     -1.902  0.1460E+00  0.6597E+00
     -1.847  0.1328E+00  0.6670E+00
     -1.792  0.1255E+00  0.6739E+00
     -1.738  0.8742E-01  0.6786E+00
     -1.683  0.5298E-01  0.6815E+00
     -1.628  0.7464E-01  0.6856E+00
     -1.573  0.1215E+00  0.6923E+00
     -1.519  0.1426E+00  0.7001E+00
     -1.464  0.1428E+00  0.7079E+00
     -1.409  0.1479E+00  0.7160E+00
     -1.355  0.1346E+00  0.7233E+00
     -1.300  0.1039E+00  0.7290E+00
     -1.245  0.1061E+00  0.7348E+00
     -1.191  0.1345E+00  0.7421E+00
     -1.136  0.1510E+00  0.7504E+00
     -1.081  0.1719E+00  0.7598E+00
     -1.027  0.2026E+00  0.7709E+00
     -0.972  0.2071E+00  0.7822E+00
     -0.917  0.1838E+00  0.7922E+00
     -0.863  0.1493E+00  0.8004E+00
     -0.808  0.1269E+00  0.8073E+00
     -0.753  0.1286E+00  0.8144E+00
     -0.699  0.1251E+00  0.8212E+00
     -0.644  0.1051E+00  0.8270E+00
     -0.589  0.7092E-01  0.8308E+00
     -0.535  0.3021E-01  0.8325E+00
     -0.480  0.9729E-02  0.8330E+00
     -0.425  0.1646E-01  0.8339E+00
     -0.371  0.3068E-01  0.8356E+00
     -0.316  0.3493E-01  0.8375E+00
     -0.261  0.2896E-01  0.8391E+00
     -0.207  0.2337E-01  0.8404E+00
     -0.152  0.2144E-01  0.8415E+00
     -0.097  0.1989E-01  0.8426E+00
     -0.043  0.2378E-01  0.8439E+00
      0.012  0.3393E-01  0.8458E+00
      0.067  0.3369E-01  0.8476E+00
      0.121  0.2692E-01  0.8491E+00
      0.176  0.3056E-01  0.8508E+00
      0.231  0.4311E-01  0.8531E+00
      0.285  0.4956E-01  0.8558E+00
      0.340  0.3859E-01  0.8580E+00
      0.395  0.2452E-01  0.8593E+00
      0.449  0.2242E-01  0.8605E+00
      0.504  0.2121E-01  0.8617E+00
      0.559  0.1335E-01  0.8624E+00
      0.613  0.7786E-02  0.8628E+00
      0.668  0.6607E-02  0.8632E+00
      0.723  0.4368E-02  0.8634E+00
      0.778  0.5695E-02  0.8637E+00
      0.832  0.1379E-01  0.8645E+00
      0.887  0.2096E-01  0.8656E+00
      0.942  0.2871E-01  0.8672E+00
      0.996  0.3522E-01  0.8691E+00
      1.051  0.3231E-01  0.8709E+00
      1.106  0.2782E-01  0.8724E+00
      1.160  0.2780E-01  0.8739E+00
      1.215  0.2830E-01  0.8755E+00
      1.270  0.3398E-01  0.8774E+00
      1.324  0.4462E-01  0.8798E+00
      1.379  0.4084E-01  0.8820E+00
      1.434  0.2911E-01  0.8836E+00
      1.488  0.2806E-01  0.8852E+00
      1.543  0.2837E-01  0.8867E+00
      1.598  0.2426E-01  0.8880E+00
      1.652  0.1942E-01  0.8891E+00
      1.707  0.1529E-01  0.8899E+00
      1.762  0.1722E-01  0.8909E+00
      1.816  0.2375E-01  0.8922E+00
      1.871  0.2080E-01  0.8933E+00
      1.926  0.9063E-02  0.8938E+00
      1.980  0.1154E-01  0.8944E+00
      2.035  0.3306E-01  0.8962E+00
      2.090  0.4434E-01  0.8987E+00
      2.144  0.2610E-01  0.9001E+00
      2.199  0.4989E-02  0.9004E+00
      2.254  0.6492E-02  0.9007E+00
      2.308  0.2336E-01  0.9020E+00
      2.363  0.3705E-01  0.9040E+00
      2.418  0.3606E-01  0.9060E+00
      2.472  0.2645E-01  0.9074E+00
      2.527  0.1901E-01  0.9085E+00
      2.582  0.1839E-01  0.9095E+00
      2.636  0.2015E-01  0.9106E+00
      2.691  0.2245E-01  0.9118E+00
      2.746  0.2866E-01  0.9134E+00
      2.800  0.2977E-01  0.9150E+00
      2.855  0.2653E-01  0.9165E+00
      2.910  0.2931E-01  0.9181E+00
      2.965  0.3083E-01  0.9197E+00
      3.019  0.2637E-01  0.9212E+00
      3.074  0.1845E-01  0.9222E+00
      3.129  0.1260E-01  0.9229E+00
      3.183  0.1425E-01  0.9237E+00
      3.238  0.1916E-01  0.9247E+00
      3.293  0.3253E-01  0.9265E+00
      3.347  0.4986E-01  0.9292E+00
      3.402  0.4134E-01  0.9315E+00
      3.457  0.1678E-01  0.9324E+00
      3.511  0.1063E-01  0.9330E+00
      3.566  0.1181E-01  0.9336E+00
      3.621  0.4784E-02  0.9339E+00
      3.675  0.1854E-02  0.9340E+00
      3.730  0.1052E-01  0.9346E+00
      3.785  0.1949E-01  0.9356E+00
      3.839  0.1578E-01  0.9365E+00
      3.894  0.8281E-02  0.9369E+00
      3.949  0.1198E-01  0.9376E+00
      4.003  0.1674E-01  0.9385E+00
      4.058  0.1056E-01  0.9391E+00
      4.113  0.5424E-02  0.9394E+00
      4.167  0.6553E-02  0.9397E+00
      4.222  0.4809E-02  0.9400E+00
      4.277  0.9356E-03  0.9401E+00
      4.331 -0.3691E-03  0.9400E+00
      4.386 -0.1842E-03  0.9400E+00
      4.441 -0.2931E-04  0.9400E+00
      4.495 -0.2171E-05  0.9400E+00
      4.550 -0.8175E-07  0.9400E+00
      4.605 -0.1618E-08  0.9400E+00
      4.659 -0.1712E-10  0.9400E+00
      4.714 -0.9766E-13  0.9400E+00
      4.769 -0.3032E-15  0.9400E+00
      4.823  0.0000E+00  0.9400E+00
      4.878  0.0000E+00  0.9400E+00
      4.933  0.0000E+00  0.9400E+00
      4.987  0.0000E+00  0.9400E+00
      5.042  0.0000E+00  0.9400E+00
      5.097  0.0000E+00  0.9400E+00
      5.152  0.0000E+00  0.9400E+00
