   65   65  817    1
  0.5269013E+02  0.1121440E-08  0.1121440E-08  0.3144560E-08  0.1500000E-16
  1.000000000000000E-004
  CAR 
 Pt                                      
    641     10    384
 
  0.0000000E+00  0.0000000E+00  0.0000000E+00  0.6250000E-01
    1      -10.250930   1.000000
    2       -8.937878   1.000000
    3       -8.465979   1.000000
    4       -8.464144   1.000000
    5       -8.463798   1.000000
    6       -8.463221   1.000000
    7       -8.450422   1.000000
    8       -8.450167   1.000000
    9       -7.817744   1.000000
   10       -7.736674   1.000000
   11       -7.522715   1.000000
   12       -7.498485   1.000000
   13       -7.498088   1.000000
   14       -7.459344   1.000000
   15       -7.401289   1.000000
   16       -7.401187   1.000000
   17       -7.399090   1.000000
   18       -7.399007   1.000000
   19       -7.398255   1.000000
   20       -7.337693   1.000000
   21       -7.329904   1.000000
   22       -7.329823   1.000000
   23       -6.918623   1.000000
   24       -6.893121   1.000000
   25       -6.893072   1.000000
   26       -6.664407   1.000000
   27       -6.631819   1.000000
   28       -6.629060   1.000000
   29       -6.628938   1.000000
   30       -6.628550   1.000000
   31       -6.628252   1.000000
   32       -6.624642   1.000000
   33       -6.624159   1.000000
   34       -6.623718   1.000000
   35       -6.622231   1.000000
   36       -6.617187   1.000000
   37       -6.617077   1.000000
   38       -6.616569   1.000000
   39       -6.607419   1.000000
   40       -6.607142   1.000000
   41       -6.584143   1.000000
   42       -6.543470   1.000000
   43       -6.543448   1.000000
   44       -6.533606   1.000000
   45       -6.489665   1.000000
   46       -6.475749   1.000000
   47       -6.475097   1.000000
   48       -6.468959   1.000000
   49       -6.468747   1.000000
   50       -6.345940   1.000000
   51       -6.283716   1.000000
   52       -6.283061   1.000000
   53       -6.281446   1.000000
   54       -6.281014   1.000000
   55       -6.274888   1.000000
   56       -6.217543   1.000000
   57       -6.159951   1.000000
   58       -6.159583   1.000000
   59       -6.155491   1.000000
   60       -6.154800   1.000000
   61       -6.150419   1.000000
   62       -6.028193   1.000000
   63       -5.811868   1.000000
   64       -5.809273   1.000000
   65       -5.808937   1.000000
   66       -5.805664   1.000000
   67       -5.805228   1.000000
   68       -5.792672   1.000000
   69       -5.746024   1.000000
   70       -5.745891   1.000000
   71       -5.736364   1.000000
   72       -5.676351   1.000000
   73       -5.676269   1.000000
   74       -5.671991   1.000000
   75       -5.671905   1.000000
   76       -5.670165   1.000000
   77       -5.633889   1.000000
   78       -5.632615   1.000000
   79       -5.628906   1.000000
   80       -5.628681   1.000000
   81       -5.614584   1.000000
   82       -5.614125   1.000000
   83       -5.485209   1.000000
   84       -5.259397   1.000000
   85       -5.258482   1.000000
   86       -5.258251   1.000000
   87       -5.253331   1.000000
   88       -5.253184   1.000000
   89       -5.216527   1.000000
   90       -5.195138   1.000000
   91       -5.194893   1.000000
   92       -5.186851   1.000000
   93       -5.182020   1.000000
   94       -5.181811   1.000000
   95       -5.178970   1.000000
   96       -5.178302   1.000000
   97       -5.168857   1.000000
   98       -5.168662   1.000000
   99       -5.165582   1.000000
  100       -5.165381   1.000000
  101       -5.140018   1.000000
  102       -5.047172   1.000000
  103       -5.047111   1.000000
  104       -5.035329   1.000000
  105       -5.034913   1.000000
  106       -5.033710   1.000000
  107       -4.924316   1.000000
  108       -4.783939   1.000000
  109       -4.783646   1.000000
  110       -4.775712   1.000000
  111       -4.769082   1.000000
  112       -4.768788   1.000000
  113       -4.762507   1.000000
  114       -4.751923   1.000000
  115       -4.751276   1.000000
  116       -4.733142   1.000000
  117       -4.629660   1.000000
  118       -4.628957   1.000000
  119       -4.620196   1.000000
  120       -4.616248   1.000000
  121       -4.611036   1.000000
  122       -4.610722   1.000000
  123       -4.603429   1.000000
  124       -4.603084   1.000000
  125       -4.578059   1.000000
  126       -4.552880   1.000000
  127       -4.449384   1.000000
  128       -4.440499   1.000000
  129       -4.440468   1.000000
  130       -4.431523   1.000000
  131       -4.431355   1.000000
  132       -4.429063   1.000000
  133       -4.428301   1.000000
  134       -4.428152   1.000000
  135       -4.364288   1.000000
  136       -4.338443   1.000000
  137       -4.338260   1.000000
  138       -4.244776   1.000000
  139       -4.244031   1.000000
  140       -4.238675   1.000000
  141       -4.237790   1.000000
  142       -4.232813   1.000000
  143       -4.186136   1.000000
  144       -4.181963   1.000000
  145       -4.181480   1.000000
  146       -4.164932   1.000000
  147       -4.022498   1.000000
  148       -4.011513   1.000000
  149       -4.011120   1.000000
  150       -4.009921   1.000000
  151       -4.009583   1.000000
  152       -4.005746   1.000000
  153       -3.955680   1.000000
  154       -3.955012   1.000000
  155       -3.935376   1.000000
  156       -3.935175   1.000000
  157       -3.926331   1.000000
  158       -3.924856   1.000000
  159       -3.921689   1.000000
  160       -3.921426   1.000000
  161       -3.872424   1.000000
  162       -3.871947   1.000000
  163       -3.847755   1.000000
  164       -3.845838   1.000000
  165       -3.845151   1.000000
  166       -3.838780   1.000000
  167       -3.837232   1.000000
  168       -3.837051   1.000000
  169       -3.834185   1.000000
  170       -3.828698   1.000000
  171       -3.827021   1.000000
  172       -3.826716   1.000000
  173       -3.822340   1.000000
  174       -3.818740   1.000000
  175       -3.818163   1.000000
  176       -3.813675   1.000000
  177       -3.813586   1.000000
  178       -3.811411   1.000000
  179       -3.794498   1.000000
  180       -3.794386   1.000000
  181       -3.687561   1.000000
  182       -3.687177   1.000000
  183       -3.680968   1.000000
  184       -3.670524   1.000000
  185       -3.660794   1.000000
  186       -3.660626   1.000000
  187       -3.644242   1.000000
  188       -3.627856   1.000000
  189       -3.627645   1.000000
  190       -3.618508   1.000000
  191       -3.618057   1.000000
  192       -3.617747   1.000000
  193       -3.567918   1.000000
  194       -3.538334   1.000000
  195       -3.537763   1.000000
  196       -3.528443   1.000000
  197       -3.516589   1.000000
  198       -3.516168   1.000000
  199       -3.508788   1.000000
  200       -3.508366   1.000000
  201       -3.502812   1.000000
  202       -3.364220   1.000000
  203       -3.165406   1.000000
  204       -3.165038   1.000000
  205       -3.163296   1.000000
  206       -3.151744   1.000000
  207       -3.151480   1.000000
  208       -3.137732   1.000000
  209       -3.087214   1.000000
  210       -3.086871   1.000000
  211       -3.079811   1.000000
  212       -3.046809   1.000000
  213       -3.044822   1.000000
  214       -3.044294   1.000000
  215       -3.041184   1.000000
  216       -3.041078   1.000000
  217       -3.031484   1.000000
  218       -2.970046   1.000000
  219       -2.968945   1.000000
  220       -2.911006   1.000000
  221       -2.905580   1.000000
  222       -2.905181   1.000000
  223       -2.900892   1.000000
  224       -2.900744   1.000000
  225       -2.895875   1.000000
  226       -2.887012   1.000000
  227       -2.781248   1.000000
  228       -2.780667   1.000000
  229       -2.760645   1.000000
  230       -2.758179   1.000000
  231       -2.757990   1.000000
  232       -2.585167   1.000000
  233       -2.550230   1.000000
  234       -2.549951   1.000000
  235       -2.545768   1.000000
  236       -2.533688   1.000000
  237       -2.533477   1.000000
  238       -2.532369   1.000000
  239       -2.468760   1.000000
  240       -2.468333   1.000000
  241       -2.445057   1.000000
  242       -2.443669   1.000000
  243       -2.412807   1.000000
  244       -2.407721   1.000000
  245       -2.406868   1.000000
  246       -2.406742   1.000000
  247       -2.374655   1.000000
  248       -2.374233   1.000000
  249       -2.369513   1.000000
  250       -2.369338   1.000000
  251       -2.365764   1.000000
  252       -2.362744   1.000000
  253       -2.265414   1.000000
  254       -2.265181   1.000000
  255       -2.258969   1.000000
  256       -2.249493   1.000000
  257       -2.240868   1.000000
  258       -2.240474   1.000000
  259       -2.148862   1.000000
  260       -2.148610   1.000000
  261       -2.135627   1.000000
  262       -2.128022   1.000000
  263       -2.127330   1.000000
  264       -2.118184   1.000000
  265       -2.117257   1.000000
  266       -2.110170   1.000000
  267       -2.092001   1.000000
  268       -2.091804   1.000000
  269       -2.082243   1.000000
  270       -2.081930   1.000000
  271       -2.079348   1.000000
  272       -1.980680   1.000000
  273       -1.980529   1.000000
  274       -1.963790   1.000000
  275       -1.959652   1.000000
  276       -1.959406   1.000000
  277       -1.953018   1.000000
  278       -1.876874   1.000000
  279       -1.876663   1.000000
  280       -1.856235   1.000000
  281       -1.766234   1.000000
  282       -1.660938   1.000000
  283       -1.659758   1.000000
  284       -1.549428   1.000000
  285       -1.509051   1.000000
  286       -1.508894   1.000000
  287       -1.464271   1.000000
  288       -1.456496   1.000000
  289       -1.456371   1.000000
  290       -1.455984   1.000000
  291       -1.430005   1.000000
  292       -1.429667   1.000000
  293       -1.306608   1.000005
  294       -1.249891   1.000162
  295       -1.249844   1.000162
  296       -1.247275   1.000186
  297       -1.243718   1.000224
  298       -1.243581   1.000226
  299       -1.159595   1.008078
  300       -1.148334   1.011412
  301       -1.147513   1.011687
  302       -1.070250   1.032794
  303       -1.070227   1.032783
  304       -1.055674   1.020146
  305       -0.978720   0.656055
  306       -0.969859   0.583686
  307       -0.968392   0.571442
  308       -0.914863   0.158266
  309       -0.914435   0.155717
  310       -0.896892   0.066875
  311       -0.896703   0.066088
  312       -0.894268   0.056245
  313       -0.891413   0.045459
  314       -0.891211   0.044726
  315       -0.886964   0.030239
  316       -0.882898   0.017980
  317       -0.882431   0.016668
  318       -0.878259   0.005834
  319       -0.864111  -0.020208
  320       -0.862466  -0.022275
  321       -0.862078  -0.022737
  322       -0.808853  -0.027175
  323       -0.693244  -0.000532
  324       -0.693159  -0.000530
  325       -0.692429  -0.000512
  326       -0.655509  -0.000073
  327       -0.655090  -0.000071
  328       -0.649683  -0.000052
  329       -0.648550  -0.000049
  330       -0.648299  -0.000048
  331       -0.645859  -0.000042
  332       -0.644460  -0.000038
  333       -0.643903  -0.000037
  334       -0.643599  -0.000036
  335       -0.642766  -0.000035
  336       -0.642612  -0.000034
  337       -0.455532  -0.000000
  338       -0.455416  -0.000000
  339       -0.446484  -0.000000
  340       -0.419422  -0.000000
  341       -0.419354  -0.000000
  342       -0.412574  -0.000000
  343       -0.322219  -0.000000
  344       -0.004596  -0.000000
  345        0.028575  -0.000000
  346        0.029803  -0.000000
  347        0.839530  -0.000000
  348        1.013390  -0.000000
  349        1.013812  -0.000000
  350        1.014067  -0.000000
  351        1.017547  -0.000000
  352        1.017705  -0.000000
  353        1.019783  -0.000000
  354        1.397756  -0.000000
  355        1.398073  -0.000000
  356        1.436622  -0.000000
  357        1.437212  -0.000000
  358        1.441092  -0.000000
  359        1.445782  -0.000000
  360        1.446752  -0.000000
  361        1.446930  -0.000000
  362        1.526868  -0.000000
  363        1.527050  -0.000000
  364        1.527728  -0.000000
  365        1.532368  -0.000000
  366        1.532411  -0.000000
  367        1.533066  -0.000000
  368        1.733436  -0.000000
  369        1.754636  -0.000000
  370        1.755728  -0.000000
  371        2.056159   0.000000
  372        2.062976   0.000000
  373        2.064091   0.000000
  374        2.327326   0.000000
  375        2.663912   0.000000
  376        2.664321   0.000000
  377        2.677733   0.000000
  378        2.681475   0.000000
  379        2.681711   0.000000
  380        3.031688   0.000000
  381        3.745331   0.000000
  382        3.747089   0.000000
  383        3.759484   0.000000
  384        3.759647   0.000000
 
  0.2500000E+00  0.4280917E-16  0.0000000E+00  0.1250000E+00
    1      -10.117609   1.000000
    2       -9.143431   1.000000
    3       -8.807141   1.000000
    4       -8.716485   1.000000
    5       -8.712503   1.000000
    6       -8.052859   1.000000
    7       -8.046143   1.000000
    8       -7.908395   1.000000
    9       -7.875248   1.000000
   10       -7.682674   1.000000
   11       -7.611726   1.000000
   12       -7.571250   1.000000
   13       -7.543988   1.000000
   14       -7.506127   1.000000
   15       -7.412766   1.000000
   16       -7.406252   1.000000
   17       -7.290342   1.000000
   18       -7.236883   1.000000
   19       -7.231234   1.000000
   20       -7.192109   1.000000
   21       -7.161613   1.000000
   22       -7.154995   1.000000
   23       -6.983520   1.000000
   24       -6.978268   1.000000
   25       -6.871001   1.000000
   26       -6.851887   1.000000
   27       -6.831085   1.000000
   28       -6.827718   1.000000
   29       -6.807153   1.000000
   30       -6.802907   1.000000
   31       -6.733539   1.000000
   32       -6.696717   1.000000
   33       -6.665282   1.000000
   34       -6.648366   1.000000
   35       -6.638772   1.000000
   36       -6.632613   1.000000
   37       -6.622782   1.000000
   38       -6.597671   1.000000
   39       -6.596768   1.000000
   40       -6.542459   1.000000
   41       -6.532031   1.000000
   42       -6.527193   1.000000
   43       -6.522374   1.000000
   44       -6.504220   1.000000
   45       -6.497958   1.000000
   46       -6.478827   1.000000
   47       -6.452016   1.000000
   48       -6.425768   1.000000
   49       -6.419495   1.000000
   50       -6.414894   1.000000
   51       -6.386902   1.000000
   52       -6.382901   1.000000
   53       -6.350756   1.000000
   54       -6.273656   1.000000
   55       -6.253692   1.000000
   56       -6.246105   1.000000
   57       -6.210350   1.000000
   58       -6.190692   1.000000
   59       -6.158374   1.000000
   60       -6.119590   1.000000
   61       -6.094162   1.000000
   62       -6.026955   1.000000
   63       -6.021729   1.000000
   64       -6.019996   1.000000
   65       -5.999841   1.000000
   66       -5.986853   1.000000
   67       -5.932123   1.000000
   68       -5.918687   1.000000
   69       -5.860439   1.000000
   70       -5.720572   1.000000
   71       -5.717630   1.000000
   72       -5.708408   1.000000
   73       -5.704351   1.000000
   74       -5.675841   1.000000
   75       -5.639900   1.000000
   76       -5.629015   1.000000
   77       -5.573810   1.000000
   78       -5.569266   1.000000
   79       -5.552481   1.000000
   80       -5.533400   1.000000
   81       -5.516441   1.000000
   82       -5.482449   1.000000
   83       -5.415766   1.000000
   84       -5.411639   1.000000
   85       -5.383904   1.000000
   86       -5.365156   1.000000
   87       -5.357596   1.000000
   88       -5.336625   1.000000
   89       -5.309085   1.000000
   90       -5.296362   1.000000
   91       -5.291140   1.000000
   92       -5.278292   1.000000
   93       -5.234487   1.000000
   94       -5.212954   1.000000
   95       -5.192936   1.000000
   96       -5.168981   1.000000
   97       -5.138720   1.000000
   98       -5.137220   1.000000
   99       -5.096048   1.000000
  100       -5.093458   1.000000
  101       -5.088595   1.000000
  102       -5.073093   1.000000
  103       -5.031206   1.000000
  104       -5.006763   1.000000
  105       -4.976582   1.000000
  106       -4.932820   1.000000
  107       -4.831141   1.000000
  108       -4.824262   1.000000
  109       -4.811170   1.000000
  110       -4.796079   1.000000
  111       -4.751639   1.000000
  112       -4.696906   1.000000
  113       -4.695069   1.000000
  114       -4.684240   1.000000
  115       -4.676607   1.000000
  116       -4.641366   1.000000
  117       -4.626858   1.000000
  118       -4.612212   1.000000
  119       -4.604660   1.000000
  120       -4.598339   1.000000
  121       -4.595541   1.000000
  122       -4.593876   1.000000
  123       -4.579085   1.000000
  124       -4.575164   1.000000
  125       -4.562797   1.000000
  126       -4.537343   1.000000
  127       -4.511756   1.000000
  128       -4.493145   1.000000
  129       -4.480333   1.000000
  130       -4.456887   1.000000
  131       -4.446141   1.000000
  132       -4.421166   1.000000
  133       -4.403336   1.000000
  134       -4.383382   1.000000
  135       -4.381181   1.000000
  136       -4.353411   1.000000
  137       -4.341167   1.000000
  138       -4.264312   1.000000
  139       -4.252391   1.000000
  140       -4.242792   1.000000
  141       -4.236806   1.000000
  142       -4.192195   1.000000
  143       -4.176318   1.000000
  144       -4.165012   1.000000
  145       -4.164473   1.000000
  146       -4.161113   1.000000
  147       -4.152152   1.000000
  148       -4.141235   1.000000
  149       -4.103293   1.000000
  150       -4.091287   1.000000
  151       -4.083524   1.000000
  152       -4.020910   1.000000
  153       -4.019287   1.000000
  154       -4.010556   1.000000
  155       -4.005070   1.000000
  156       -4.000145   1.000000
  157       -3.999462   1.000000
  158       -3.987269   1.000000
  159       -3.964945   1.000000
  160       -3.940501   1.000000
  161       -3.932504   1.000000
  162       -3.914919   1.000000
  163       -3.910730   1.000000
  164       -3.898963   1.000000
  165       -3.888850   1.000000
  166       -3.881695   1.000000
  167       -3.866355   1.000000
  168       -3.851254   1.000000
  169       -3.833667   1.000000
  170       -3.820867   1.000000
  171       -3.776140   1.000000
  172       -3.774292   1.000000
  173       -3.752787   1.000000
  174       -3.752546   1.000000
  175       -3.748560   1.000000
  176       -3.747633   1.000000
  177       -3.732143   1.000000
  178       -3.724277   1.000000
  179       -3.689382   1.000000
  180       -3.672359   1.000000
  181       -3.671345   1.000000
  182       -3.654487   1.000000
  183       -3.650039   1.000000
  184       -3.648396   1.000000
  185       -3.618317   1.000000
  186       -3.610083   1.000000
  187       -3.596282   1.000000
  188       -3.585804   1.000000
  189       -3.577520   1.000000
  190       -3.536309   1.000000
  191       -3.499210   1.000000
  192       -3.477878   1.000000
  193       -3.468036   1.000000
  194       -3.454847   1.000000
  195       -3.447393   1.000000
  196       -3.441741   1.000000
  197       -3.358681   1.000000
  198       -3.356047   1.000000
  199       -3.353365   1.000000
  200       -3.309156   1.000000
  201       -3.280323   1.000000
  202       -3.256238   1.000000
  203       -3.253388   1.000000
  204       -3.251442   1.000000
  205       -3.234933   1.000000
  206       -3.228643   1.000000
  207       -3.161862   1.000000
  208       -3.125141   1.000000
  209       -3.075818   1.000000
  210       -3.065302   1.000000
  211       -3.060658   1.000000
  212       -3.033631   1.000000
  213       -3.031987   1.000000
  214       -3.024283   1.000000
  215       -3.002155   1.000000
  216       -3.001696   1.000000
  217       -2.984839   1.000000
  218       -2.984188   1.000000
  219       -2.970973   1.000000
  220       -2.970540   1.000000
  221       -2.939090   1.000000
  222       -2.938785   1.000000
  223       -2.916686   1.000000
  224       -2.875945   1.000000
  225       -2.847168   1.000000
  226       -2.835033   1.000000
  227       -2.789057   1.000000
  228       -2.740908   1.000000
  229       -2.679695   1.000000
  230       -2.656366   1.000000
  231       -2.639527   1.000000
  232       -2.625266   1.000000
  233       -2.540033   1.000000
  234       -2.533359   1.000000
  235       -2.524202   1.000000
  236       -2.516301   1.000000
  237       -2.508811   1.000000
  238       -2.485837   1.000000
  239       -2.458758   1.000000
  240       -2.456703   1.000000
  241       -2.441765   1.000000
  242       -2.422049   1.000000
  243       -2.383153   1.000000
  244       -2.333385   1.000000
  245       -2.330160   1.000000
  246       -2.307050   1.000000
  247       -2.299097   1.000000
  248       -2.282519   1.000000
  249       -2.280304   1.000000
  250       -2.273789   1.000000
  251       -2.220849   1.000000
  252       -2.144411   1.000000
  253       -2.137829   1.000000
  254       -2.129050   1.000000
  255       -2.117568   1.000000
  256       -2.107974   1.000000
  257       -2.094486   1.000000
  258       -2.093947   1.000000
  259       -2.074238   1.000000
  260       -2.069846   1.000000
  261       -2.057669   1.000000
  262       -2.047664   1.000000
  263       -2.011920   1.000000
  264       -2.004499   1.000000
  265       -1.978769   1.000000
  266       -1.974728   1.000000
  267       -1.962109   1.000000
  268       -1.955685   1.000000
  269       -1.948074   1.000000
  270       -1.942022   1.000000
  271       -1.917663   1.000000
  272       -1.887201   1.000000
  273       -1.881171   1.000000
  274       -1.847615   1.000000
  275       -1.820721   1.000000
  276       -1.819950   1.000000
  277       -1.814065   1.000000
  278       -1.813564   1.000000
  279       -1.791124   1.000000
  280       -1.786739   1.000000
  281       -1.679048   1.000000
  282       -1.645633   1.000000
  283       -1.644478   1.000000
  284       -1.631341   1.000000
  285       -1.597088   1.000000
  286       -1.540398   1.000000
  287       -1.533787   1.000000
  288       -1.526543   1.000000
  289       -1.514810   1.000000
  290       -1.480642   1.000000
  291       -1.456850   1.000000
  292       -1.450161   1.000000
  293       -1.430756   1.000000
  294       -1.423808   1.000000
  295       -1.403478   1.000000
  296       -1.345823   1.000000
  297       -1.312434   1.000004
  298       -1.283567   1.000023
  299       -1.236881   1.000319
  300       -1.235654   1.000340
  301       -1.231065   1.000428
  302       -1.180793   1.003847
  303       -1.172792   1.005159
  304       -1.127392   1.019660
  305       -1.123779   1.021290
  306       -1.076480   1.034875
  307       -1.064872   1.029535
  308       -1.058550   1.023651
  309       -1.050042   1.011614
  310       -1.041822   0.994764
  311       -1.035323   0.977346
  312       -1.014121   0.892309
  313       -0.999410   0.807079
  314       -0.991846   0.755547
  315       -0.979538   0.662556
  316       -0.978233   0.652161
  317       -0.957333   0.478144
  318       -0.934330   0.291133
  319       -0.921562   0.200373
  320       -0.911709   0.139906
  321       -0.894155   0.055805
  322       -0.893064   0.051598
  323       -0.863396  -0.021129
  324       -0.816929  -0.030630
  325       -0.800877  -0.023510
  326       -0.782494  -0.015442
  327       -0.774150  -0.012315
  328       -0.773680  -0.012152
  329       -0.761477  -0.008405
  330       -0.758269  -0.007577
  331       -0.756020  -0.007035
  332       -0.702433  -0.000824
  333       -0.688833  -0.000429
  334       -0.679207  -0.000264
  335       -0.655182  -0.000071
  336       -0.647675  -0.000046
  337       -0.615803  -0.000006
  338       -0.606762  -0.000004
  339       -0.597694  -0.000002
  340       -0.560789  -0.000000
  341       -0.377458  -0.000000
  342       -0.302176  -0.000000
  343       -0.224105  -0.000000
  344        0.004128  -0.000000
  345        0.007778  -0.000000
  346        0.221500  -0.000000
  347        0.227724  -0.000000
  348        0.238461  -0.000000
  349        0.320484  -0.000000
  350        0.452130  -0.000000
  351        0.460269  -0.000000
  352        0.650128  -0.000000
  353        0.951668  -0.000000
  354        0.977391  -0.000000
  355        0.984047  -0.000000
  356        1.119330  -0.000000
  357        1.181309  -0.000000
  358        1.283944  -0.000000
  359        1.310611  -0.000000
  360        1.318540  -0.000000
  361        1.324791  -0.000000
  362        1.461578  -0.000000
  363        1.474011  -0.000000
  364        1.636245  -0.000000
  365        1.813755   0.000000
  366        1.826186   0.000000
  367        1.840578   0.000000
  368        2.025338   0.000000
  369        2.070587   0.000000
  370        2.074906   0.000000
  371        2.369710   0.000000
  372        2.590540   0.000000
  373        2.619348   0.000000
  374        2.832011   0.000000
  375        2.892057   0.000000
  376        2.897787   0.000000
  377        2.914788   0.000000
  378        3.007757   0.000000
  379        3.255577   0.000000
  380        3.342863   0.000000
  381        3.346921   0.000000
  382        3.362883   0.000000
  383        3.809573   0.000000
  384        4.146530   0.000000
 
  0.5000000E+00  0.8561833E-16  0.0000000E+00  0.6250000E-01
    1       -9.734878   1.000000
    2       -9.728950   1.000000
    3       -8.803600   1.000000
    4       -8.798649   1.000000
    5       -8.443320   1.000000
    6       -8.426405   1.000000
    7       -7.625517   1.000000
    8       -7.589926   1.000000
    9       -7.583185   1.000000
   10       -7.572616   1.000000
   11       -7.532196   1.000000
   12       -7.524201   1.000000
   13       -7.516101   1.000000
   14       -7.514232   1.000000
   15       -7.310392   1.000000
   16       -7.306100   1.000000
   17       -7.262402   1.000000
   18       -7.255924   1.000000
   19       -7.202189   1.000000
   20       -7.185699   1.000000
   21       -7.164069   1.000000
   22       -7.157277   1.000000
   23       -7.151512   1.000000
   24       -7.140697   1.000000
   25       -6.982923   1.000000
   26       -6.971815   1.000000
   27       -6.970090   1.000000
   28       -6.963768   1.000000
   29       -6.912666   1.000000
   30       -6.859005   1.000000
   31       -6.856359   1.000000
   32       -6.849259   1.000000
   33       -6.712066   1.000000
   34       -6.693155   1.000000
   35       -6.652196   1.000000
   36       -6.623347   1.000000
   37       -6.619261   1.000000
   38       -6.608813   1.000000
   39       -6.591941   1.000000
   40       -6.579935   1.000000
   41       -6.501805   1.000000
   42       -6.501247   1.000000
   43       -6.494803   1.000000
   44       -6.480061   1.000000
   45       -6.479727   1.000000
   46       -6.474498   1.000000
   47       -6.412623   1.000000
   48       -6.392567   1.000000
   49       -6.362231   1.000000
   50       -6.348815   1.000000
   51       -6.347735   1.000000
   52       -6.340420   1.000000
   53       -6.325668   1.000000
   54       -6.314049   1.000000
   55       -6.299607   1.000000
   56       -6.278256   1.000000
   57       -6.274393   1.000000
   58       -6.265492   1.000000
   59       -6.220862   1.000000
   60       -6.143111   1.000000
   61       -6.136575   1.000000
   62       -6.136139   1.000000
   63       -6.098852   1.000000
   64       -6.090690   1.000000
   65       -6.088665   1.000000
   66       -6.077868   1.000000
   67       -5.960742   1.000000
   68       -5.953859   1.000000
   69       -5.917739   1.000000
   70       -5.717689   1.000000
   71       -5.713972   1.000000
   72       -5.712667   1.000000
   73       -5.710834   1.000000
   74       -5.686150   1.000000
   75       -5.657580   1.000000
   76       -5.653223   1.000000
   77       -5.652046   1.000000
   78       -5.606749   1.000000
   79       -5.606339   1.000000
   80       -5.601308   1.000000
   81       -5.591393   1.000000
   82       -5.575518   1.000000
   83       -5.523234   1.000000
   84       -5.396219   1.000000
   85       -5.395333   1.000000
   86       -5.393901   1.000000
   87       -5.379379   1.000000
   88       -5.347363   1.000000
   89       -5.345070   1.000000
   90       -5.322741   1.000000
   91       -5.294187   1.000000
   92       -5.277499   1.000000
   93       -5.255166   1.000000
   94       -5.233776   1.000000
   95       -5.178481   1.000000
   96       -5.165741   1.000000
   97       -5.151460   1.000000
   98       -5.051981   1.000000
   99       -5.049249   1.000000
  100       -5.043681   1.000000
  101       -5.028950   1.000000
  102       -5.009497   1.000000
  103       -4.999010   1.000000
  104       -4.992780   1.000000
  105       -4.987724   1.000000
  106       -4.975272   1.000000
  107       -4.917009   1.000000
  108       -4.806283   1.000000
  109       -4.798720   1.000000
  110       -4.797153   1.000000
  111       -4.794818   1.000000
  112       -4.793246   1.000000
  113       -4.764838   1.000000
  114       -4.722515   1.000000
  115       -4.715124   1.000000
  116       -4.711321   1.000000
  117       -4.696477   1.000000
  118       -4.635459   1.000000
  119       -4.624874   1.000000
  120       -4.605456   1.000000
  121       -4.604743   1.000000
  122       -4.492457   1.000000
  123       -4.488350   1.000000
  124       -4.479459   1.000000
  125       -4.465324   1.000000
  126       -4.432491   1.000000
  127       -4.428617   1.000000
  128       -4.397585   1.000000
  129       -4.379773   1.000000