 vasp.5.4.4.18Apr17-6-g9f103f2a35 (build May 23 2022 10:35:18) complex          
  
 executed on           IFC18_impi date 2023.06.20  15:33:29
 running on   64 total cores
 distrk:  each k-point on   64 cores,    1 groups
 distr:  one band on NCORES_PER_BAND=  16 cores,    4 groups


--------------------------------------------------------------------------------------------------------


 INCAR:
 POTCAR:    PAW_PBE Pt 04Feb2005                  
 POTCAR:    PAW_PBE H 15Jun2001                   
 POTCAR:    PAW_PBE Pt 04Feb2005                  
   VRHFIN =Pt: s1d9                                                             
   LEXCH  = PE                                                                  
   EATOM  =   729.1176 eV,   53.5886 Ry                                         
                                                                                
   TITEL  = PAW_PBE Pt 04Feb2005                                                
   LULTRA =        F    use ultrasoft PP ?                                      
   IUNSCR =        1    unscreen: 0-lin 1-nonlin 2-no                           
   RPACOR =    2.330    partial core radius                                     
   POMASS =  195.080; ZVAL   =   10.000    mass and valenz                      
   RCORE  =    2.600    outmost cutoff radius                                   
   RWIGS  =    2.750; RWIGS  =    1.455    wigner-seitz radius (au A)           
   ENMAX  =  230.283; ENMIN  =  172.712 eV                                      
   ICORE  =        3    local potential                                         
   LCOR   =        T    correct aug charges                                     
   LPAW   =        T    paw PP                                                  
   EAUG   =  358.966                                                            
   DEXC   =    0.000                                                            
   RMAX   =    2.658    core radius for proj-oper                               
   RAUG   =    1.300    factor for augmentation sphere                          
   RDEP   =    2.761    radius for radial grids                                 
   RDEPT  =    2.203    core radius for aug-charge                              
                                                                                
   Atomic configuration                                                         
   16 entries                                                                   
     n  l   j            E        occ.                                          
     1  0  0.50    -78401.1885   2.0000                                         
     2  0  0.50    -13770.7750   2.0000                                         
     2  1  1.50    -11931.0468   6.0000                                         
     3  0  0.50     -3234.7234   2.0000                                         
     3  1  1.50     -2699.2216   6.0000                                         
     3  2  2.50     -2119.5714  10.0000                                         
     4  0  0.50      -695.1528   2.0000                                         
     4  1  1.50      -519.6034   6.0000                                         
     4  2  2.50      -306.6786  10.0000                                         
     4  3  3.50       -70.1041  14.0000                                         
     5  0  0.50      -101.7747   2.0000                                         
     5  1  1.50       -55.9873   6.0000                                         
     5  2  2.50        -6.1423   9.0000                                         
     6  0  0.50        -5.6573   1.0000                                         
     6  1  1.50        -6.8029   0.0000                                         
     5  3  2.50        -1.3606   0.0000                                         
   Description                                                                  
     l       E           TYP  RCUT    TYP  RCUT                                 
     2     -6.1423404     23  2.500                                             
     2     -7.5029230     23  2.500                                             
     0     -5.6573207     23  2.500                                             
     0      0.7416693     23  2.500                                             
     1     -2.7211652     23  2.600                                             
     1     20.4087390     23  2.600                                             
     3     -1.3605826     23  2.500                                             
  local pseudopotential read in
  partial core-charges read in
  partial kinetic energy density read in
  atomic valenz-charges read in
  non local Contribution for L=           2  read in
    real space projection operators read in
  non local Contribution for L=           2  read in
    real space projection operators read in
  non local Contribution for L=           0  read in
    real space projection operators read in
  non local Contribution for L=           0  read in
    real space projection operators read in
  non local Contribution for L=           1  read in
    real space projection operators read in
  non local Contribution for L=           1  read in
    real space projection operators read in
    PAW grid and wavefunctions read in
 
   number of l-projection  operators is LMAX  =           6
   number of lm-projection operators is LMMAX =          18
 
 POTCAR:    PAW_PBE H 15Jun2001                   
   VRHFIN =H: ultrasoft test                                                    
   LEXCH  = PE                                                                  
   EATOM  =    12.4884 eV,    0.9179 Ry                                         
                                                                                
   TITEL  = PAW_PBE H 15Jun2001                                                 
   LULTRA =        F    use ultrasoft PP ?                                      
   IUNSCR =        0    unscreen: 0-lin 1-nonlin 2-no                           
   RPACOR =    0.000    partial core radius                                     
   POMASS =    1.000; ZVAL   =    1.000    mass and valenz                      
   RCORE  =    1.100    outmost cutoff radius                                   
   RWIGS  =    0.700; RWIGS  =    0.370    wigner-seitz radius (au A)           
   ENMAX  =  250.000; ENMIN  =  200.000 eV                                      
   RCLOC  =    0.701    cutoff for local pot                                    
   LCOR   =        T    correct aug charges                                     
   LPAW   =        T    paw PP                                                  
   EAUG   =  400.000                                                            
   RMAX   =    1.123    core radius for proj-oper                               
   RAUG   =    1.200    factor for augmentation sphere                          
   RDEP   =    1.112    radius for radial grids                                 
   RDEPT  =    0.926    core radius for aug-charge                              
                                                                                
   Atomic configuration                                                         
    2 entries                                                                   
     n  l   j            E        occ.                                          
     1  0  0.50        -6.4927   1.0000                                         
     2  1  0.50        -3.4015   0.0000                                         
   Description                                                                  
     l       E           TYP  RCUT    TYP  RCUT                                 
     0     -6.4927494     23  1.100                                             
     0      6.8029130     23  1.100                                             
     1     -4.0817478     23  1.100                                             
  local pseudopotential read in
  atomic valenz-charges read in
  non local Contribution for L=           0  read in
    real space projection operators read in
  non local Contribution for L=           0  read in
    real space projection operators read in
  non local Contribution for L=           1  read in
    real space projection operators read in
    PAW grid and wavefunctions read in
 
   number of l-projection  operators is LMAX  =           3
   number of lm-projection operators is LMMAX =           5
 
 Optimization of the real space projectors (new method)

 maximal supplied QI-value         = 14.36
 optimisation between [QCUT,QGAM] = [ 10.20, 20.39] = [ 29.12,116.47] Ry 
 Optimized for a Real-space Cutoff    1.42 Angstroem

   l    n(q)    QCUT    max X(q) W(low)/X(q) W(high)/X(q)  e(spline) 
   2      8    10.197    66.195    0.74E-03    0.54E-03    0.15E-06
   2      8    10.197    64.643    0.76E-03    0.55E-03    0.15E-06
   0      9    10.197    95.520    0.30E-03    0.12E-03    0.68E-07
   0      9    10.197    63.403    0.29E-03    0.12E-03    0.65E-07
   1      8    10.197    19.961    0.11E-02    0.12E-02    0.15E-06
   1      8    10.197    13.289    0.93E-03    0.10E-02    0.13E-06
 Optimization of the real space projectors (new method)

 maximal supplied QI-value         = 34.20
 optimisation between [QCUT,QGAM] = [  9.92, 20.18] = [ 27.55,114.04] Ry 
 Optimized for a Real-space Cutoff    1.06 Angstroem

   l    n(q)    QCUT    max X(q) W(low)/X(q) W(high)/X(q)  e(spline) 
   0      6     9.919    19.460    0.17E-02    0.71E-03    0.15E-06
   0      6     9.919    12.209    0.17E-02    0.71E-03    0.14E-06
   1      6     9.919     4.655    0.35E-03    0.20E-02    0.14E-06
  PAW_PBE Pt 04Feb2005                  :
 energy of atom  1       EATOM= -729.1176
 kinetic energy error for atom=    0.0056 (will be added to EATOM!!)
  PAW_PBE H 15Jun2001                   :
 energy of atom  2       EATOM=  -12.4884
 kinetic energy error for atom=    0.0098 (will be added to EATOM!!)
 
 
 POSCAR: Pt  H                                   
  positions in cartesian coordinates
  No initial velocities read in
 exchange correlation table for  LEXCH =        8
   RHO(1)=    0.500       N(1)  =     2000
   RHO(2)=  100.500       N(2)  =     4000

 VTST: version 3.2, (02/03/18)

 CHAIN: initializing optimizer
 
 OPT: Using VASP Dynamics algorithm
 CHAIN: Read ICHAIN            0
 
 POSCAR: Pt  H                                   
  positions in cartesian coordinates
  No initial velocities read in
 


--------------------------------------------------------------------------------------------------------


 ion  position               nearest neighbor table
   1  0.083  0.333  0.391-   7 2.80  38 2.80   8 2.80   2 2.80   3 2.80  18 2.80  35 2.80   4 2.80
                            52 2.80
   2  0.083  0.083  0.391-  24 2.80  37 2.80   7 2.80  17 2.80  19 2.80   4 2.80  35 2.80  36 2.80
                             1 2.80
   3  0.333  0.333  0.391-   5 2.80   8 2.80   6 2.80   4 2.80   1 2.80  18 2.80  34 2.80  20 2.80
                            33 2.80
   4  0.333  0.083  0.391-   7 2.80  22 2.80   5 2.80  19 2.80  49 2.80   3 2.80   1 2.80  34 2.80
                             2 2.80
   5  0.417  0.167  0.464-  10 2.78  11 2.78   3 2.80  34 2.80   4 2.80   6 2.80   7 2.80  22 2.80
                             8 2.80  39 2.80  56 2.80  12 2.82
   6  0.417  0.417  0.464-  25 2.79  20 2.80  33 2.80   3 2.80  21 2.80  23 2.80   8 2.80   5 2.80
                            39 2.80  40 2.80  12 2.80  27 2.80
   7  0.167  0.167  0.464-   9 2.79  10 2.79  44 2.79   4 2.80   1 2.80   2 2.80   8 2.80  22 2.80
                            24 2.80  37 2.80   5 2.80  38 2.80
   8  0.167  0.417  0.464-  10 2.78  59 2.79  25 2.79   3 2.80  18 2.80   1 2.80   6 2.80  23 2.80
                             7 2.80   5 2.80  53 2.80  38 2.80
   9  0.250  0.000  0.536-   7 2.79  24 2.79  22 2.79  28 2.81  26 2.81  11 2.81  44 2.81  10 2.81
                            43 2.81  31 2.81  16 2.81  14 2.81
  10  0.250  0.250  0.536-   5 2.78   8 2.78   7 2.79  11 2.80  25 2.80  59 2.80   9 2.81  15 2.81
                            44 2.81  12 2.81  16 2.82  13 2.82
  11  0.500  0.000  0.536-   5 2.78  56 2.79  22 2.79  10 2.80  41 2.80  58 2.80   9 2.81  46 2.81
                            28 2.81  12 2.81  16 2.82  61 2.82
  12  0.501  0.251  0.537-  27 2.77  42 2.78  46 2.80  15 2.80  25 2.80   6 2.80  41 2.80  39 2.80
                            10 2.81  11 2.81   5 2.82  45 2.90
  13  0.083  0.334  0.609-  47 2.80  15 2.80  64 2.80  14 2.80  30 2.80  16 2.80  59 2.81  44 2.82
                            10 2.82
  14  0.083  0.083  0.609-  47 2.80  48 2.80  16 2.80  31 2.80  13 2.80  29 2.80   9 2.81  44 2.82
                            43 2.82
  15  0.333  0.333  0.609-  13 2.80  16 2.80  12 2.80  30 2.80  46 2.81  10 2.81  25 2.81  45 2.82
                            32 2.82
  16  0.333  0.083  0.609-  46 2.80  15 2.80  31 2.80  14 2.80  13 2.80  61 2.80   9 2.81  10 2.82
                            11 2.82
  17  0.083  0.833  0.391-  54 2.80  23 2.80  24 2.80   2 2.80  36 2.80  51 2.80  19 2.80  20 2.80
                            18 2.80
  18  0.083  0.583  0.391-   8 2.80  53 2.80  23 2.80   3 2.80  52 2.80   1 2.80  51 2.80  17 2.80
                            20 2.80
  19  0.333  0.833  0.391-  24 2.80  21 2.80  22 2.80   4 2.80   2 2.80  17 2.80  49 2.80  20 2.80
                            50 2.80
  20  0.333  0.583  0.391-   6 2.80  23 2.80  21 2.80  33 2.80  50 2.80  19 2.80   3 2.80  18 2.80
                            17 2.80
  21  0.417  0.667  0.464-  28 2.78  26 2.78  19 2.80  50 2.80  20 2.80  55 2.80   6 2.80  22 2.80
                            40 2.80  23 2.80  24 2.80  27 2.82
  22  0.417  0.917  0.464-  28 2.79   9 2.79  11 2.79   4 2.80  49 2.80  19 2.80  55 2.80  24 2.80
                             7 2.80   5 2.80  21 2.80  56 2.80
  23  0.167  0.667  0.464-  26 2.78  25 2.79  60 2.79  20 2.80  17 2.80  18 2.80  24 2.80   8 2.80
                             6 2.80  54 2.80  21 2.80  53 2.80
  24  0.167  0.917  0.464-   9 2.79  26 2.79  43 2.79   2 2.80  19 2.80  17 2.80  22 2.80  23 2.80
                             7 2.80  37 2.80  21 2.80  54 2.80
  25  0.250  0.500  0.536-  23 2.79   8 2.79   6 2.79  26 2.80  10 2.80  27 2.80  12 2.80  59 2.80
                            60 2.80  15 2.81  30 2.81  32 2.81
  26  0.250  0.750  0.536-  21 2.78  23 2.78  24 2.79  28 2.80  25 2.80  60 2.80   9 2.81  32 2.81
                            43 2.81  27 2.81  31 2.82  29 2.82
  27  0.501  0.498  0.537-  42 2.77  12 2.77  32 2.80  62 2.80  25 2.80  57 2.80   6 2.80  40 2.81
                            26 2.81  28 2.81  21 2.82  45 2.90
  28  0.500  0.750  0.536-  21 2.78  55 2.78  22 2.79  26 2.80  57 2.80  58 2.81   9 2.81  62 2.81
                            11 2.81  27 2.81  31 2.82  61 2.82
  29  0.083  0.834  0.609-  32 2.79  48 2.79  63 2.80  30 2.80  14 2.80  31 2.81  60 2.81  43 2.82
                            26 2.82
  30  0.083  0.584  0.609-  64 2.80  15 2.80  32 2.80  63 2.80  13 2.80  29 2.80  60 2.81  25 2.81
                            59 2.81
  31  0.333  0.834  0.609-  62 2.80  32 2.80  16 2.80  14 2.80  61 2.80  29 2.81   9 2.81  28 2.82
                            26 2.82
  32  0.332  0.585  0.609-  29 2.79  31 2.80  27 2.80  30 2.80  26 2.81  62 2.81  25 2.81  45 2.82
                            15 2.82
  33  0.583  0.333  0.391-  39 2.80   6 2.80  40 2.80  35 2.80  36 2.80  20 2.80  50 2.80  34 2.80
                             3 2.80
  34  0.583  0.083  0.391-   5 2.80  56 2.80  39 2.80  49 2.80  51 2.80   3 2.80  36 2.80   4 2.80
                            33 2.80
  35  0.833  0.333  0.391-  37 2.80  40 2.80  38 2.80  33 2.80  50 2.80   1 2.80  36 2.80   2 2.80
                            52 2.80
  36  0.833  0.083  0.391-  39 2.80  54 2.80  37 2.80  51 2.80  17 2.80  33 2.80  34 2.80  35 2.80
                             2 2.80
  37  0.917  0.167  0.464-  44 2.78  43 2.78   2 2.80  35 2.80  36 2.80  38 2.80  39 2.80  40 2.80
                            24 2.80   7 2.80  54 2.80  42 2.82
  38  0.917  0.417  0.464-  44 2.78  59 2.79  57 2.79  52 2.80   1 2.80  35 2.80  40 2.80  37 2.80
                            53 2.80  55 2.80   7 2.80   8 2.80
  39  0.667  0.167  0.464-  41 2.79  36 2.80  33 2.80  34 2.80   5 2.80  37 2.80  40 2.80   6 2.80
                            54 2.80  56 2.80  42 2.80  12 2.80
  40  0.667  0.417  0.464-  57 2.79  50 2.80  35 2.80  33 2.80  38 2.80  55 2.80  39 2.80  21 2.80
                            37 2.80   6 2.80  42 2.80  27 2.81
  41  0.750  0.000  0.536-  39 2.79  56 2.79  54 2.79  11 2.80  43 2.80  12 2.80  60 2.80  42 2.80
                            58 2.80  63 2.81  48 2.81  46 2.82
  42  0.748  0.251  0.537-  27 2.77  12 2.78  47 2.80  48 2.80  57 2.80  40 2.80  41 2.80  39 2.80
                            44 2.81  43 2.81  37 2.82  45 2.90
  43  1.000  0.000  0.536-  37 2.78  54 2.78  24 2.79  44 2.80  41 2.80  60 2.80   9 2.81  48 2.81
                            26 2.81  42 2.81  29 2.82  14 2.82
  44  1.000  0.250  0.536-  37 2.78  38 2.78   7 2.79  43 2.80  57 2.80  59 2.80   9 2.81  47 2.81
                            10 2.81  42 2.81  14 2.82  13 2.82
  45  0.583  0.334  0.613-  65 1.56  47 2.81  62 2.82  15 2.82  48 2.82  46 2.82  32 2.82  27 2.90
                            42 2.90  12 2.90
  46  0.583  0.083  0.609-  61 2.80  16 2.80  12 2.80  63 2.80  15 2.81  11 2.81  41 2.82  45 2.82
                            48 2.82
  47  0.834  0.333  0.609-  13 2.80  14 2.80  42 2.80  64 2.80  48 2.81  44 2.81  57 2.81  45 2.81
                            62 2.82
  48  0.834  0.083  0.609-  29 2.79  42 2.80  14 2.80  63 2.80  47 2.81  43 2.81  41 2.81  45 2.82
                            46 2.82
  49  0.583  0.833  0.391-  22 2.80  55 2.80  56 2.80  34 2.80   4 2.80  19 2.80  51 2.80  50 2.80
                            52 2.80
  50  0.583  0.583  0.391-  40 2.80  21 2.80  55 2.80  52 2.80  35 2.80  20 2.80  33 2.80  49 2.80
                            19 2.80
  51  0.833  0.833  0.391-  56 2.80  53 2.80  54 2.80  36 2.80  34 2.80  49 2.80  17 2.80  18 2.80
                            52 2.80
  52  0.833  0.583  0.391-  38 2.80  55 2.80  53 2.80  50 2.80  18 2.80  35 2.80   1 2.80  49 2.80
                            51 2.80
  53  0.917  0.667  0.464-  59 2.79  58 2.79  60 2.79  51 2.80  18 2.80  52 2.80  56 2.80  38 2.80
                            55 2.80   8 2.80  54 2.80  23 2.80
  54  0.917  0.917  0.464-  43 2.78  60 2.79  41 2.79  36 2.80  17 2.80  51 2.80  24 2.80  23 2.80
                            37 2.80  56 2.80  39 2.80  53 2.80
  55  0.667  0.667  0.464-  28 2.78  58 2.79  57 2.79  49 2.80  52 2.80  50 2.80  21 2.80  40 2.80
                            22 2.80  38 2.80  53 2.80  56 2.80
  56  0.667  0.917  0.464-  11 2.79  58 2.79  41 2.79  51 2.80  34 2.80  49 2.80  53 2.80  39 2.80
                            22 2.80  54 2.80   5 2.80  55 2.80
  57  0.750  0.500  0.536-  55 2.79  40 2.79  38 2.79  28 2.80  44 2.80  58 2.80  42 2.80  59 2.80
                            27 2.80  47 2.81  64 2.81  62 2.81
  58  0.750  0.750  0.536-  56 2.79  55 2.79  53 2.79  57 2.80  41 2.80  60 2.80  11 2.80  59 2.80
                            28 2.81  64 2.81  61 2.81  63 2.81
  59  0.000  0.500  0.536-  38 2.79   8 2.79  53 2.79  25 2.80  57 2.80  10 2.80  44 2.80  58 2.80
                            60 2.81  13 2.81  30 2.81  64 2.81
  60  1.000  0.750  0.536-  54 2.79  23 2.79  53 2.79  25 2.80  41 2.80  58 2.80  43 2.80  26 2.80
                            59 2.81  30 2.81  29 2.81  63 2.81
  61  0.583  0.833  0.609-  62 2.79  46 2.80  63 2.80  64 2.80  31 2.80  16 2.80  58 2.81  11 2.82
                            28 2.82
  62  0.583  0.584  0.609-  61 2.79  31 2.80  27 2.80  64 2.80  28 2.81  32 2.81  57 2.81  45 2.82
                            47 2.82
  63  0.833  0.834  0.609-  48 2.80  61 2.80  46 2.80  64 2.80  29 2.80  30 2.80  41 2.81  58 2.81
                            60 2.81
  64  0.833  0.584  0.609-  30 2.80  13 2.80  62 2.80  61 2.80  63 2.80  47 2.80  58 2.81  57 2.81
                            59 2.81
  65  0.584  0.333  0.663-  45 1.56
 

IMPORTANT INFORMATION: All symmetrisations will be switched off!
NOSYMM: (Re-)initialisation of all symmetry stuff for point group C_1.

 
 
 KPOINTS: kpoints                                 

Automatic generation of k-mesh.
Space group operators:
 irot       det(A)        alpha          n_x          n_y          n_z        tau_x        tau_y        tau_z
    1     1.000000     0.000000     1.000000     0.000000     0.000000     0.000000     0.000000     0.000000
 
 Subroutine IBZKPT returns following result:
 ===========================================
 
 Found     10 irreducible k-points:
 
 Following reciprocal coordinates:
            Coordinates               Weight
  0.000000  0.000000  0.000000      1.000000
  0.250000  0.000000  0.000000      2.000000
  0.500000  0.000000  0.000000      1.000000
  0.000000  0.250000  0.000000      2.000000
  0.250000  0.250000  0.000000      2.000000
  0.500000  0.250000  0.000000      2.000000
 -0.250000  0.250000  0.000000      2.000000
  0.000000  0.500000  0.000000      1.000000
  0.250000  0.500000  0.000000      2.000000
  0.500000  0.500000  0.000000      1.000000
 
 Following cartesian coordinates:
            Coordinates               Weight
  0.000000  0.000000  0.000000      1.000000
  0.022293 -0.012871  0.000000      2.000000
  0.044586 -0.025741  0.000000      1.000000
  0.000000  0.025741  0.000000      2.000000
  0.022293  0.012871  0.000000      2.000000
  0.044586  0.000000  0.000000      2.000000
 -0.022293  0.038612  0.000000      2.000000
  0.000000  0.051483  0.000000      1.000000
  0.022293  0.038612  0.000000      2.000000
  0.044586  0.025741  0.000000      1.000000
 
 
 Subroutine IBZKPT_HF returns following result:
 ==============================================
 
 Found     16 k-points in 1st BZ
 the following     16 k-points will be used (e.g. in the exchange kernel)
 Following reciprocal coordinates:   # in IRBZ
  0.000000  0.000000  0.000000    0.06250000   1 t-inv F
  0.250000  0.000000  0.000000    0.06250000   2 t-inv F
  0.500000  0.000000  0.000000    0.06250000   3 t-inv F
  0.000000  0.250000  0.000000    0.06250000   4 t-inv F
  0.250000  0.250000  0.000000    0.06250000   5 t-inv F
  0.500000  0.250000  0.000000    0.06250000   6 t-inv F
 -0.250000  0.250000  0.000000    0.06250000   7 t-inv F
  0.000000  0.500000  0.000000    0.06250000   8 t-inv F
  0.250000  0.500000  0.000000    0.06250000   9 t-inv F
  0.500000  0.500000  0.000000    0.06250000  10 t-inv F
 -0.250000 -0.000000  0.000000    0.06250000   2 t-inv T
  0.000000 -0.250000  0.000000    0.06250000   4 t-inv T
 -0.250000 -0.250000  0.000000    0.06250000   5 t-inv T
 -0.500000 -0.250000  0.000000    0.06250000   6 t-inv T
  0.250000 -0.250000  0.000000    0.06250000   7 t-inv T
 -0.250000 -0.500000  0.000000    0.06250000   9 t-inv T


--------------------------------------------------------------------------------------------------------




 Dimension of arrays:
   k-points           NKPTS =     10   k-points in BZ     NKDIM =     10   number of bands    NBANDS=    384
   number of dos      NEDOS =    301   number of ions     NIONS =     65
   non local maximal  LDIM  =      6   non local SUM 2l+1 LMDIM =     18
   total plane-waves  NPLWV = 501760
   max r-space proj   IRMAX =   1814   max aug-charges    IRDMAX=   3170
   dimension x,y,z NGX =    56 NGY =   56 NGZ =  160
   dimension x,y,z NGXF=    80 NGYF=   80 NGZF=  210
   support grid    NGXF=    80 NGYF=   80 NGZF=  210
   ions per type =              64   1
   NGX,Y,Z   is equivalent  to a cutoff of   8.30,  8.30,  8.46 a.u.
   NGXF,Y,Z  is equivalent  to a cutoff of  11.86, 11.86, 11.10 a.u.

 SYSTEM =  Pt                                      
 POSCAR =  Pt  H                                   

 Startparameter for this run:
   NWRITE =      2    write-flag & timer
   PREC   = med       normal or accurate (medium, high low for compatibility)
   ISTART =      0    job   : 0-new  1-cont  2-samecut
   ICHARG =      2    charge: 1-file 2-atom 10-const
   ISPIN  =      1    spin polarized calculation?
   LNONCOLLINEAR =      F non collinear calculations
   LSORBIT =      F    spin-orbit coupling
   INIWAV =      1    electr: 0-lowe 1-rand  2-diag
   LASPH  =      F    aspherical Exc in radial PAW
   METAGGA=      F    non-selfconsistent MetaGGA calc.

 Electronic Relaxation 1
   ENCUT  =  400.0 eV  29.40 Ry    5.42 a.u.  18.29 18.29 51.28*2*pi/ulx,y,z
   ENINI  =  400.0     initial cutoff
   ENAUG  =  400.0 eV  augmentation charge cutoff
   NELM   =    100;   NELMIN=  2; NELMDL= -5     # of ELM steps 
   EDIFF  = 0.1E-04   stopping-criterion for ELM
   LREAL  =      T    real-space projection
   NLSPLINE    = F    spline interpolate recip. space projectors
   LCOMPAT=      F    compatible to vasp.4.4
   GGA_COMPAT  = T    GGA compatible to vasp.4.4-vasp.4.6
   LMAXPAW     = -100 max onsite density
   LMAXMIX     =    2 max onsite mixed and CHGCAR
   VOSKOWN=      0    Vosko Wilk Nusair interpolation
   ROPT   =   -0.00200  -0.00200
 Ionic relaxation
   EDIFFG = 0.1E-03   stopping-criterion for IOM
   NSW    =    817    number of steps for IOM
   NBLOCK =      1;   KBLOCK =    817    inner block; outer block 
   IBRION =      5    ionic relax: 0-MD 1-quasi-New 2-CG
   NFREE  =      2    steps in history (QN), initial steepest desc. (CG)
   ISIF   =      1    stress and relaxation
   IWAVPR =     11    prediction:  0-non 1-charg 2-wave 3-comb
   ISYM   =      0    0-nonsym 1-usesym 2-fastsym
   LCORR  =      T    Harris-Foulkes like correction to forces

   POTIM  = 0.0150    time-step for ionic-motion
   TEIN   =    0.0    initial temperature
   TEBEG  =    0.0;   TEEND  =   0.0 temperature during run
   SMASS  =  -3.00    Nose mass-parameter (am)
   estimated Nose-frequenzy (Omega)   =  0.10E-29 period in steps =****** mass=  -0.287E-26a.u.
   SCALEE = 1.0000    scale energy and forces
   NPACO  =    256;   APACO  = 16.0  distance and # of slots for P.C.
   PSTRESS=    0.0 pullay stress

  Mass of Ions in am
   POMASS = 195.08  1.00
  Ionic Valenz
   ZVAL   =  10.00  1.00
  Atomic Wigner-Seitz radii
   RWIGS  =  -1.00 -1.00
  virtual crystal weights 
   VCA    =   1.00  1.00
   NELECT =     641.0000    total number of electrons
   NUPDOWN=      -1.0000    fix difference up-down

 DOS related values:
   EMIN   =  10.00;   EMAX   =-10.00  energy-range for DOS
   EFERMI =   0.00
   ISMEAR =     1;   SIGMA  =   0.10  broadening in eV -4-tet -1-fermi 0-gaus

 Electronic relaxation 2 (details)
   IALGO  =     68    algorithm
   LDIAG  =      T    sub-space diagonalisation (order eigenvalues)
   LSUBROT=      F    optimize rotation matrix (better conditioning)
   TURBO    =      0    0=normal 1=particle mesh
   IRESTART =      0    0=no restart 2=restart with 2 vectors
   NREBOOT  =      0    no. of reboots
   NMIN     =      0    reboot dimension
   EREF     =   0.00    reference energy to select bands
   IMIX   =      4    mixing-type and parameters
     AMIX     =   0.40;   BMIX     =  1.00
     AMIX_MAG =   1.60;   BMIX_MAG =  1.00
     AMIN     =   0.10
     WC   =   100.;   INIMIX=   1;  MIXPRE=   1;  MAXMIX= -45

 Intra band minimization:
   WEIMIN = 0.0010     energy-eigenvalue tresh-hold
   EBREAK =  0.65E-08  absolut break condition
   DEPER  =   0.30     relativ break condition  

   TIME   =   0.40     timestep for ELM

  volume/ion in A,a.u.               =      52.69       355.57
  Fermi-wavevector in a.u.,A,eV,Ry     =   0.936440  1.769615 11.931220  0.876920
  Thomas-Fermi vector in A             =   2.063450
 
 Write flags
   LWAVE        =      F    write WAVECAR
   LDOWNSAMPLE  =      F    k-point downsampling of WAVECAR
   LCHARG       =      F    write CHGCAR
   LVTOT        =      F    write LOCPOT, total local potential
   LVHAR        =      F    write LOCPOT, Hartree potential only
   LELF         =      F    write electronic localiz. function (ELF)
   LORBIT       =      0    0 simple, 1 ext, 2 COOP (PROOUT), +10 PAW based schemes


 Dipole corrections
   LMONO  =      F    monopole corrections only (constant potential shift)
   LDIPOL =      F    correct potential (dipole corrections)
   IDIPOL =      0    1-x, 2-y, 3-z, 4-all directions 
   EPSILON=  1.0000000 bulk dielectric constant

 Exchange correlation treatment:
   GGA     =    --    GGA type
   LEXCH   =     8    internal setting for exchange type
   VOSKOWN=      0    Vosko Wilk Nusair interpolation
   LHFCALC =     F    Hartree Fock is set to
   LHFONE  =     F    Hartree Fock one center treatment
   AEXX    =    0.0000 exact exchange contribution

 Linear response parameters
   LEPSILON=     F    determine dielectric tensor
   LRPA    =     F    only Hartree local field effects (RPA)
   LNABLA  =     F    use nabla operator in PAW spheres
   LVEL    =     F    velocity operator in full k-point grid
   LINTERFAST=   F  fast interpolation
   KINTER  =     0    interpolate to denser k-point grid
   CSHIFT  =0.1000    complex shift for real part using Kramers Kronig
   OMEGAMAX=  -1.0    maximum frequency
   DEG_THRESHOLD= 0.2000000E-02 threshold for treating states as degnerate
   RTIME   =   -0.100 relaxation time in fs
  (WPLASMAI=    0.000 imaginary part of plasma frequency in eV, 0.658/RTIME)
   DFIELD  = 0.0000000 0.0000000 0.0000000 field for delta impulse in time
 
 Orbital magnetization related:
   ORBITALMAG=     F  switch on orbital magnetization
   LCHIMAG   =     F  perturbation theory with respect to B field
   DQ        =  0.001000  dq finite difference perturbation B field
   LLRAUG    =     F  two centre corrections for induced B field



--------------------------------------------------------------------------------------------------------


 finite differences
   using selective dynamics as specified on POSCAR
   WARNING: If single coordinates had been selected the selection of coordinates
            is made according to the corresponding   d i r e c t   coordinates!
            Don't support selection of single cartesian coordinates -- sorry ...
  !
 charge density and potential will be updated during run
 non-spin polarized calculation
 RMM-DIIS sequential band-by-band and
  variant of blocked Davidson during initial phase
 perform sub-space diagonalisation
    before iterative eigenvector-optimisation
 modified Broyden-mixing scheme, WC =      100.0
 initial mixing is a Kerker type mixing with AMIX =  0.4000 and BMIX =      1.0000
 Hartree-type preconditioning will be used
 using additional bands           63
 real space projection scheme for non local part
 use partial core corrections
 calculate Harris-corrections to forces 
   (improved forces if not selfconsistent)
 use gradient corrections 
 use of overlap-Matrix (Vanderbilt PP)
 Methfessel and Paxton  Order N= 1 SIGMA  =   0.10


--------------------------------------------------------------------------------------------------------


  energy-cutoff  :      400.00
  volume of cell :     3424.86
      direct lattice vectors                 reciprocal lattice vectors
    11.214400000  0.000000000  0.000000000     0.089171066 -0.051482939  0.000000000
     5.607200000  9.711955288  0.000000000     0.000000000  0.102965878  0.000000000
     0.000000000  0.000000000 31.445600000     0.000000000  0.000000000  0.031800951

  length of vectors
    11.214400000 11.214400000 31.445600000     0.102965878  0.102965878  0.031800951


 
 k-points in units of 2pi/SCALE and weight: kpoints                                 
   0.00000000  0.00000000  0.00000000       0.062
   0.02229277 -0.01287073  0.00000000       0.125
   0.04458553 -0.02574147  0.00000000       0.062
   0.00000000  0.02574147  0.00000000       0.125
   0.02229277  0.01287073  0.00000000       0.125
   0.04458553  0.00000000  0.00000000       0.125
  -0.02229277  0.03861220  0.00000000       0.125
   0.00000000  0.05148294  0.00000000       0.062
   0.02229277  0.03861220  0.00000000       0.125
   0.04458553  0.02574147  0.00000000       0.062
 
 k-points in reciprocal lattice and weights: kpoints                                 
   0.00000000  0.00000000  0.00000000       0.062
   0.25000000  0.00000000  0.00000000       0.125
   0.50000000  0.00000000  0.00000000       0.062
   0.00000000  0.25000000  0.00000000       0.125
   0.25000000  0.25000000  0.00000000       0.125
   0.50000000  0.25000000  0.00000000       0.125
  -0.25000000  0.25000000  0.00000000       0.125
   0.00000000  0.50000000  0.00000000       0.062
   0.25000000  0.50000000  0.00000000       0.125
   0.50000000  0.50000000  0.00000000       0.062
 
 position of ions in fractional coordinates (direct lattice) 
   0.08333000  0.33333000  0.39081000
   0.08333000  0.08333000  0.39081000
   0.33333000  0.33333000  0.39081000
   0.33333000  0.08333000  0.39081000
   0.41667000  0.16667000  0.46360000
   0.41667000  0.41667000  0.46360000
   0.16667000  0.16667000  0.46360000
   0.16667000  0.41667000  0.46360000
   0.24997144  0.00003304  0.53571396
   0.25031769  0.25009460  0.53565278
   0.50000544  0.00042157  0.53567741
   0.50071783  0.25090443  0.53659324
   0.08311689  0.33356088  0.60894570
   0.08338460  0.08345964  0.60896944
   0.33255427  0.33326029  0.60890124
   0.33309249  0.08339233  0.60897306
   0.08333000  0.83333000  0.39081000
   0.08333000  0.58333000  0.39081000
   0.33333000  0.83333000  0.39081000
   0.33333000  0.58333000  0.39081000
   0.41667000  0.66667000  0.46360000
   0.41667000  0.91667000  0.46360000
   0.16667000  0.66667000  0.46360000
   0.16667000  0.91667000  0.46360000
   0.24993120  0.50007500  0.53576754
   0.25029847  0.74966507  0.53564451
   0.50076237  0.49832483  0.53663987
   0.49998050  0.74964490  0.53563681
   0.08308521  0.83354879  0.60895958
   0.08310851  0.58354903  0.60893988
   0.33313662  0.83372187  0.60894331
   0.33247438  0.58455413  0.60890477
   0.58333000  0.33333000  0.39081000
   0.58333000  0.08333000  0.39081000
   0.83333000  0.33333000  0.39081000
   0.83333000  0.08333000  0.39081000
   0.91667000  0.16667000  0.46360000
   0.91667000  0.41667000  0.46360000
   0.66667000  0.16667000  0.46360000
   0.66667000  0.41667000  0.46360000
   0.74990959  0.00009917  0.53576565
   0.74825409  0.25093738  0.53660507
   0.99952488  0.00043911  0.53566414
   0.99954300  0.25006111  0.53564561
   0.58315787  0.33360763  0.61347593
   0.58280289  0.08299644  0.60892252
   0.83404510  0.33320672  0.60890214
   0.83403792  0.08291616  0.60892486
   0.58333000  0.83333000  0.39081000
   0.58333000  0.58333000  0.39081000
   0.83333000  0.83333000  0.39081000
   0.83333000  0.58333000  0.39081000
   0.91667000  0.66667000  0.46360000
   0.91667000  0.91667000  0.46360000
   0.66667000  0.66667000  0.46360000
   0.66667000  0.91667000  0.46360000
   0.74990172  0.50009180  0.53577685
   0.74989390  0.75007927  0.53573603
   0.00000057  0.49994544  0.53573777
   0.99996991  0.75011975  0.53574921
   0.58334176  0.83345659  0.60897144
   0.58288851  0.58448888  0.60890891
   0.83313200  0.83354025  0.60894503
   0.83328288  0.58352949  0.60894069
   0.58396750  0.33259602  0.66299421
 
 position of ions in cartesian coordinates  (Angst):
   2.80354393  3.23728606 12.28925494
   1.40174393  0.80929723 12.28925494
   5.60714393  3.23728606 12.28925494
   4.20534393  0.80929723 12.28925494
   5.60725607  1.61869159 14.57818016
   7.00905607  4.04668041 14.57818016
   2.80365607  1.61869159 14.57818016
   4.20545607  4.04668041 14.57818016
   2.80346493  0.00032086 16.84584683
   4.20949321  2.42890760 16.84392317
   5.60962484  0.00409422 16.84469756
   7.02212141  2.43677264 16.87349646
   2.80244861  3.23952838 19.14866278
   1.40308315  0.81055625 19.14940949
   5.59805369  3.23660905 19.14726482
   4.20302990  0.80990254 19.14952331
   5.60714393  8.09326370 12.28925494
   4.20534393  5.66527488 12.28925494
   8.41074393  8.09326370 12.28925494
   7.00894393  5.66527488 12.28925494
   8.41085607  6.47466923 14.57818016
   9.81265607  8.90265805 14.57818016
   5.60725607  6.47466923 14.57818016
   7.00905607  8.90265805 14.57818016
   5.60684902  4.85670603 16.84753163
   7.01046912  7.28071360 16.84366309
   8.40995646  4.83970845 16.87496263
   9.81039019  7.28051776 16.84342078
   5.60562559  8.09538857 19.14909926
   4.20408818  5.66740211 19.14847999
   8.41077255  8.09706956 19.14858776
   7.00621261  5.67716353 19.14737568
   8.41074393  3.23728606 12.28925494
   7.00894393  0.80929723 12.28925494
  11.21434393  3.23728606 12.28925494
   9.81254393  0.80929723 12.28925494
  11.21445607  1.61869159 14.57818016
  12.61625607  4.04668041 14.57818016
   8.41085607  1.61869159 14.57818016
   9.81265607  4.04668041 14.57818016
   8.41034223  0.00096318 16.84747227
   9.79827682  2.43709266 16.87386838
  11.21153392  0.00426458 16.84428026
  12.61141768  2.42858228 16.84369750
   8.41037033  3.23998243 19.29111869
   7.00116235  0.80605772 19.14793384
  11.22167207  3.23608874 19.14729304
   9.81816231  0.80527805 19.14800750
  11.21434393  8.09326370 12.28925494
   9.81254393  5.66527488 12.28925494
  14.01794393  8.09326370 12.28925494
  12.61614393  5.66527488 12.28925494
  14.01805607  6.47466923 14.57818016
  15.41985607  8.90265805 14.57818016
  11.21445607  6.47466923 14.57818016
  12.61625607  8.90265805 14.57818016
  11.21381262  4.85686922 16.84782436
  12.61545464  7.28473630 16.84654092
   2.80330047  4.85544776 16.84659547
  15.42013396  7.28512943 16.84695539
  11.21518562  8.09449313 19.14947244
   9.81409097  5.67652985 19.14750592
  14.01690242  8.09530562 19.14864187
  12.61673406  5.66721236 19.14850530
   8.41377756  3.23015771 20.84825080
 


--------------------------------------------------------------------------------------------------------


 k-point  1 :   0.0000 0.0000 0.0000  plane waves:   62299
 k-point  2 :   0.2500 0.0000 0.0000  plane waves:   62176
 k-point  3 :   0.5000 0.0000 0.0000  plane waves:   62174
 k-point  4 :   0.0000 0.2500 0.0000  plane waves:   62176
 k-point  5 :   0.2500 0.2500 0.0000  plane waves:   62176
 k-point  6 :   0.5000 0.2500 0.0000  plane waves:   62212
 k-point  7 :  -0.2500 0.2500 0.0000  plane waves:   62212
 k-point  8 :   0.0000 0.5000 0.0000  plane waves:   62174
 k-point  9 :   0.2500 0.5000 0.0000  plane waves:   62212
 k-point 10 :   0.5000 0.5000 0.0000  plane waves:   62174

 maximum and minimum number of plane-waves per node :      3961     3830

 maximum number of plane-waves:     62299
 maximum index in each direction: 
   IXMAX=   18   IYMAX=   18   IZMAX=   51
   IXMIN=  -18   IYMIN=  -18   IZMIN=  -51


 real space projection operators:
  total allocation   :      15384.90 KBytes
  max/ min on nodes  :       1156.30        771.36


 parallel 3D FFT for wavefunctions:
    minimum data exchange during FFTs selected (reduces bandwidth)
 parallel 3D FFT for charge:
    minimum data exchange during FFTs selected (reduces bandwidth)


 total amount of memory used by VASP MPI-rank0   100095. kBytes
=======================================================================

   base      :      30000. kBytes
   nonlr-proj:       3366. kBytes
   fftplans  :       2189. kBytes
   grid      :       3331. kBytes
   one-center:         77. kBytes
   wavefun   :      61132. kBytes
 
     INWAV:  cpu time    0.0000: real time    0.0002
 Broyden mixing: mesh for mixing (old mesh)
   NGX = 37   NGY = 37   NGZ =103
  (NGX  = 80   NGY  = 80   NGZ  =210)
  gives a total of 141007 points

 initial charge density was supplied:
 charge density of overlapping atoms calculated
 number of electron     641.0000000 magnetization 
 keeping initial charge density in first step


--------------------------------------------------------------------------------------------------------


 Maximum index for non-local projection operator          239
 Maximum index for augmentation-charges          224 (set IRDMAX)


--------------------------------------------------------------------------------------------------------


 First call to EWALD:  gamma=   0.118
 Maximum number of real-space cells 4x 4x 2
 Maximum number of reciprocal cells 2x 2x 5

    FEWALD:  cpu time    0.0020: real time    0.0020


--------------------------------------- Iteration      1(   1)  ---------------------------------------


    POTLOK:  cpu time    0.0181: real time    0.0222
    SETDIJ:  cpu time    0.0039: real time    0.0067
     EDDAV:  cpu time   10.8386: real time   10.8690
       DOS:  cpu time    0.0033: real time    0.0033
    --------------------------------------------
      LOOP:  cpu time   10.8640: real time   10.9012

 eigenvalue-minimisations  :  7704
 total energy-change (2. order) : 0.4196449E+04  (-0.2326614E+05)
 number of electron     641.0000000 magnetization 
 augmentation part      641.0000000 magnetization 

 Free energy of the ion-electron system (eV)
  ---------------------------------------------------
  alpha Z        PSCENC =      1139.09295860
  Ewald energy   TEWEN  =    407097.26515967
  -Hartree energ DENC   =   -455154.47701306
  -exchange      EXHF   =         0.00000000
  -V(xc)+E(xc)   XCENC  =       217.94133510
  PAW double counting   =     44554.04029484   -42743.92178403
  entropy T*S    EENTRO =        -0.00292727
  eigenvalues    EBANDS =      2410.86719566
  atomic energy  EATOM  =     46675.64354841
  Solvation  Ediel_sol  =         0.00000000
  ---------------------------------------------------
  free energy    TOTEN  =      4196.44876792 eV

  energy without entropy =     4196.45169519  energy(sigma->0) =     4196.44974368


--------------------------------------------------------------------------------------------------------




--------------------------------------- Iteration      1(   2)  ---------------------------------------


     EDDAV:  cpu time   12.8923: real time   12.9255
       DOS:  cpu time    0.0039: real time    0.0039
    --------------------------------------------
      LOOP:  cpu time   12.8962: real time   12.9295

 eigenvalue-minimisations  :  9632
 total energy-change (2. order) :-0.4212081E+04  (-0.3861843E+04)
 number of electron     641.0000000 magnetization 
 augmentation part      641.0000000 magnetization 

 Free energy of the ion-electron system (eV)
  ---------------------------------------------------
  alpha Z        PSCENC =      1139.09295860
  Ewald energy   TEWEN  =    407097.26515967
  -Hartree energ DENC   =   -455154.47701306
  -exchange      EXHF   =         0.00000000
  -V(xc)+E(xc)   XCENC  =       217.94133510
  PAW double counting   =     44554.04029484   -42743.92178403
  entropy T*S    EENTRO =        -0.01340134
  eigenvalues    EBANDS =     -1801.20339166
  atomic energy  EATOM  =     46675.64354841
  Solvation  Ediel_sol  =         0.00000000
  ---------------------------------------------------
  free energy    TOTEN  =       -15.63229347 eV

  energy without entropy =      -15.61889213  energy(sigma->0) =      -15.62782636


--------------------------------------------------------------------------------------------------------




--------------------------------------- Iteration      1(   3)  ---------------------------------------


     EDDAV:  cpu time   12.0974: real time   12.1316
       DOS:  cpu time    0.0040: real time    0.0040
    --------------------------------------------
      LOOP:  cpu time   12.1014: real time   12.1357

 eigenvalue-minimisations  :  8904
 total energy-change (2. order) :-0.3643232E+03  (-0.3325689E+03)
 number of electron     641.0000000 magnetization 
 augmentation part      641.0000000 magnetization 

 Free energy of the ion-electron system (eV)
  ---------------------------------------------------
  alpha Z        PSCENC =      1139.09295860
  Ewald energy   TEWEN  =    407097.26515967
  -Hartree energ DENC   =   -455154.47701306
  -exchange      EXHF   =         0.00000000
  -V(xc)+E(xc)   XCENC  =       217.94133510
  PAW double counting   =     44554.04029484   -42743.92178403
  entropy T*S    EENTRO =        -0.04510954
  eigenvalues    EBANDS =     -2165.49483939
  atomic energy  EATOM  =     46675.64354841
  Solvation  Ediel_sol  =         0.00000000
  ---------------------------------------------------
  free energy    TOTEN  =      -379.95544940 eV

  energy without entropy =     -379.91033986  energy(sigma->0) =     -379.94041289


--------------------------------------------------------------------------------------------------------




--------------------------------------- Iteration      1(   4)  ---------------------------------------


     EDDAV:  cpu time   13.7233: real time   13.7586
       DOS:  cpu time    0.0038: real time    0.0038
    --------------------------------------------
      LOOP:  cpu time   13.7271: real time   13.7624

 eigenvalue-minimisations  : 10424
 total energy-change (2. order) :-0.1880196E+02  (-0.1714363E+02)
 number of electron     641.0000000 magnetization 
 augmentation part      641.0000000 magnetization 

 Free energy of the ion-electron system (eV)
  ---------------------------------------------------
  alpha Z        PSCENC =      1139.09295860
  Ewald energy   TEWEN  =    407097.26515967
  -Hartree energ DENC   =   -455154.47701306
  -exchange      EXHF   =         0.00000000
  -V(xc)+E(xc)   XCENC  =       217.94133510
  PAW double counting   =     44554.04029484   -42743.92178403
  entropy T*S    EENTRO =        -0.08276750
  eigenvalues    EBANDS =     -2184.25914255
  atomic energy  EATOM  =     46675.64354841
  Solvation  Ediel_sol  =         0.00000000
  ---------------------------------------------------
  free energy    TOTEN  =      -398.75741052 eV

  energy without entropy =     -398.67464302  energy(sigma->0) =     -398.72982135


--------------------------------------------------------------------------------------------------------




--------------------------------------- Iteration      1(   5)  ---------------------------------------


     EDDAV:  cpu time   12.7701: real time   12.8055
       DOS:  cpu time    0.0042: real time    0.0042
    CHARGE:  cpu time    0.2878: real time    0.2885
    MIXING:  cpu time    0.0014: real time    0.0017
    --------------------------------------------
      LOOP:  cpu time   13.0635: real time   13.0999

 eigenvalue-minimisations  :  9512
 total energy-change (2. order) :-0.5583372E+00  (-0.5470649E+00)
 number of electron     641.0001606 magnetization 
 augmentation part      186.2214013 magnetization 

 Broyden mixing:
  rms(total) = 0.81490E+01    rms(broyden)= 0.81489E+01
  rms(prec ) = 0.82116E+01
  weight for this iteration     100.00

 Free energy of the ion-electron system (eV)
  ---------------------------------------------------
  alpha Z        PSCENC =      1139.09295860
  Ewald energy   TEWEN  =    407097.26515967
  -Hartree energ DENC   =   -455154.47701306
  -exchange      EXHF   =         0.00000000
  -V(xc)+E(xc)   XCENC  =       217.94133510
  PAW double counting   =     44554.04029484   -42743.92178403
  entropy T*S    EENTRO =        -0.08490478
  eigenvalues    EBANDS =     -2184.81534244
  atomic energy  EATOM  =     46675.64354841
  Solvation  Ediel_sol  =         0.00000000
  ---------------------------------------------------
  free energy    TOTEN  =      -399.31574770 eV

  energy without entropy =     -399.23084291  energy(sigma->0) =     -399.28744610


--------------------------------------------------------------------------------------------------------




--------------------------------------- Iteration      1(   6)  ---------------------------------------


    POTLOK:  cpu time    0.0129: real time    0.0131
    SETDIJ:  cpu time    0.0034: real time    0.0060
    EDDIAG:  cpu time    1.5413: real time    1.5454
  RMM-DIIS:  cpu time    4.8230: real time    4.8352
    ORTHCH:  cpu time    0.4895: real time    0.4918
       DOS:  cpu time    0.0044: real time    0.0044
    CHARGE:  cpu time    0.2853: real time    0.2860
    MIXING:  cpu time    0.0014: real time    0.0014
    --------------------------------------------
      LOOP:  cpu time    7.1612: real time    7.1833

 eigenvalue-minimisations  :  7714
 total energy-change (2. order) : 0.1256139E+02  (-0.6925567E+01)
 number of electron     641.0001180 magnetization 
 augmentation part      196.6637091 magnetization 

 Broyden mixing:
  rms(total) = 0.60252E+01    rms(broyden)= 0.60251E+01
  rms(prec ) = 0.62254E+01
  weight for this iteration     100.00

 eigenvalues of (default mixing * dielectric matrix)
  average eigenvalue GAMMA=   1.2316
  1.2316

 Free energy of the ion-electron system (eV)
  ---------------------------------------------------
  alpha Z        PSCENC =      1139.09295860
  Ewald energy   TEWEN  =    407097.26515967
  -Hartree energ DENC   =   -454336.77603927
  -exchange      EXHF   =         0.00000000
  -V(xc)+E(xc)   XCENC  =       201.17996561
  PAW double counting   =     48994.59247963   -47277.49874166
  entropy T*S    EENTRO =        -0.02666565
  eigenvalues    EBANDS =     -2880.22702171
  atomic energy  EATOM  =     46675.64354841
  Solvation  Ediel_sol  =         0.00000000
  ---------------------------------------------------
  free energy    TOTEN  =      -386.75435637 eV

  energy without entropy =     -386.72769072  energy(sigma->0) =     -386.74546782


--------------------------------------------------------------------------------------------------------




--------------------------------------- Iteration      1(   7)  ---------------------------------------


    POTLOK:  cpu time    0.0134: real time    0.0173
    SETDIJ:  cpu time    0.0037: real time    0.0063
    EDDIAG:  cpu time    1.5425: real time    1.5478
  RMM-DIIS:  cpu time    4.7853: real time    4.7977
    ORTHCH:  cpu time    0.4891: real time    0.4902
       DOS:  cpu time    0.0038: real time    0.0038
    CHARGE:  cpu time    0.2899: real time    0.2906
    MIXING:  cpu time    0.0008: real time    0.0009
    --------------------------------------------
      LOOP:  cpu time    7.1286: real time    7.1547

 eigenvalue-minimisations  :  7720
 total energy-change (2. order) :-0.8815040E+02  (-0.1670441E+02)
 number of electron     641.0002022 magnetization 
 augmentation part      193.2988014 magnetization 

 Broyden mixing:
  rms(total) = 0.80167E+01    rms(broyden)= 0.80165E+01
  rms(prec ) = 0.89124E+01
  weight for this iteration     100.00

 eigenvalues of (default mixing * dielectric matrix)
  average eigenvalue GAMMA=   1.2142
  2.1565  0.2720

 Free energy of the ion-electron system (eV)
  ---------------------------------------------------
  alpha Z        PSCENC =      1139.09295860
  Ewald energy   TEWEN  =    407097.26515967
  -Hartree energ DENC   =   -455049.64663214
  -exchange      EXHF   =         0.00000000
  -V(xc)+E(xc)   XCENC  =       196.03603804
  PAW double counting   =     52240.24327807   -50561.29364915
  entropy T*S    EENTRO =        -0.02781209
  eigenvalues    EBANDS =     -2212.21764835
  atomic energy  EATOM  =     46675.64354841
  Solvation  Ediel_sol  =         0.00000000
  ---------------------------------------------------
  free energy    TOTEN  =      -474.90475894 eV

  energy without entropy =     -474.87694685  energy(sigma->0) =     -474.89548824


--------------------------------------------------------------------------------------------------------




--------------------------------------- Iteration      1(   8)  ---------------------------------------


    POTLOK:  cpu time    0.0116: real time    0.0117
    SETDIJ:  cpu time    0.0031: real time    0.0032
    EDDIAG:  cpu time    1.5479: real time    1.5520
  RMM-DIIS:  cpu time    4.9096: real time    4.9222
    ORTHCH:  cpu time    0.4898: real time    0.4909
       DOS:  cpu time    0.0040: real time    0.0040
    CHARGE:  cpu time    0.2854: real time    0.2861
    MIXING:  cpu time    0.0006: real time    0.0006
    --------------------------------------------
      LOOP:  cpu time    7.2520: real time    7.2708

 eigenvalue-minimisations  :  7727
 total energy-change (2. order) : 0.8519707E+02  (-0.4831171E+01)
 number of electron     641.0001810 magnetization 
 augmentation part      200.2836192 magnetization 

 Broyden mixing:
  rms(total) = 0.36189E+01    rms(broyden)= 0.36188E+01
  rms(prec ) = 0.42087E+01
  weight for this iteration     100.00

 eigenvalues of (default mixing * dielectric matrix)
  average eigenvalue GAMMA=   0.9651
  2.1279  0.3836  0.3836

 Free energy of the ion-electron system (eV)
  ---------------------------------------------------
  alpha Z        PSCENC =      1139.09295860
  Ewald energy   TEWEN  =    407097.26515967
  -Hartree energ DENC   =   -454434.53392487
  -exchange      EXHF   =         0.00000000
  -V(xc)+E(xc)   XCENC  =       191.83568080
  PAW double counting   =     55756.58708567   -54126.52987797
  entropy T*S    EENTRO =         0.03473363
  eigenvalues    EBANDS =     -2689.10304869
  atomic energy  EATOM  =     46675.64354841
  Solvation  Ediel_sol  =         0.00000000
  ---------------------------------------------------
  free energy    TOTEN  =      -389.70768476 eV

  energy without entropy =     -389.74241839  energy(sigma->0) =     -389.71926263


--------------------------------------------------------------------------------------------------------




--------------------------------------- Iteration      1(   9)  ---------------------------------------


    POTLOK:  cpu time    0.0133: real time    0.0175
    SETDIJ:  cpu time    0.0031: real time    0.0032
    EDDIAG:  cpu time    1.5482: real time    1.5520
  RMM-DIIS:  cpu time    4.7953: real time    4.8077
    ORTHCH:  cpu time    0.4880: real time    0.4891
       DOS:  cpu time    0.0040: real time    0.0040
    CHARGE:  cpu time    0.2874: real time    0.2882
    MIXING:  cpu time    0.0008: real time    0.0008
    --------------------------------------------
      LOOP:  cpu time    7.1401: real time    7.1625

 eigenvalue-minimisations  :  7717
 total energy-change (2. order) :-0.2851341E+02  (-0.3893563E+01)
 number of electron     641.0001337 magnetization 
 augmentation part      198.6072696 magnetization 

 Broyden mixing:
  rms(total) = 0.53113E+01    rms(broyden)= 0.53111E+01
  rms(prec ) = 0.70717E+01
  weight for this iteration     100.00

 eigenvalues of (default mixing * dielectric matrix)
  average eigenvalue GAMMA=   0.8941
  2.1294  1.0033  0.2971  0.1468

 Free energy of the ion-electron system (eV)
  ---------------------------------------------------
  alpha Z        PSCENC =      1139.09295860
  Ewald energy   TEWEN  =    407097.26515967
  -Hartree energ DENC   =   -454372.94981022
  -exchange      EXHF   =         0.00000000
  -V(xc)+E(xc)   XCENC  =       193.07080711
  PAW double counting   =     55912.46756226   -54280.17181404
  entropy T*S    EENTRO =        -0.02204838
  eigenvalues    EBANDS =     -2782.61745576
  atomic energy  EATOM  =     46675.64354841
  Solvation  Ediel_sol  =         0.00000000
  ---------------------------------------------------
  free energy    TOTEN  =      -418.22109236 eV

  energy without entropy =     -418.19904397  energy(sigma->0) =     -418.21374289


--------------------------------------------------------------------------------------------------------




--------------------------------------- Iteration      1(  10)  ---------------------------------------


    POTLOK:  cpu time    0.0117: real time    0.0135
    SETDIJ:  cpu time    0.0030: real time    0.0030
    EDDIAG:  cpu time    1.5510: real time    1.5548
  RMM-DIIS:  cpu time    4.7688: real time    4.7810
    ORTHCH:  cpu time    0.4869: real time    0.4883
       DOS:  cpu time    0.0039: real time    0.0039
    CHARGE:  cpu time    0.2858: real time    0.2865
    MIXING:  cpu time    0.0010: real time    0.0010
    --------------------------------------------
      LOOP:  cpu time    7.1121: real time    7.1320

 eigenvalue-minimisations  :  7707
 total energy-change (2. order) : 0.1818386E+02  (-0.2684398E+01)
 number of electron     641.0001330 magnetization 
 augmentation part      199.1504201 magnetization 

 Broyden mixing:
  rms(total) = 0.45604E+01    rms(broyden)= 0.45601E+01
  rms(prec ) = 0.56818E+01
  weight for this iteration     100.00

 eigenvalues of (default mixing * dielectric matrix)
  average eigenvalue GAMMA=   0.8011
  2.2042  1.1958  0.2477  0.2477  0.1103

 Free energy of the ion-electron system (eV)
  ---------------------------------------------------
  alpha Z        PSCENC =      1139.09295860
  Ewald energy   TEWEN  =    407097.26515967
  -Hartree energ DENC   =   -454400.70178478
  -exchange      EXHF   =         0.00000000
  -V(xc)+E(xc)   XCENC  =       194.25449881
  PAW double counting   =     56163.55406340   -54529.77308575
  entropy T*S    EENTRO =        -0.01177813
  eigenvalues    EBANDS =     -2739.36081084
  atomic energy  EATOM  =     46675.64354841
  Solvation  Ediel_sol  =         0.00000000
  ---------------------------------------------------
  free energy    TOTEN  =      -400.03723061 eV

  energy without entropy =     -400.02545248  energy(sigma->0) =     -400.03330456


--------------------------------------------------------------------------------------------------------




--------------------------------------- Iteration      1(  11)  ---------------------------------------


    POTLOK:  cpu time    0.0141: real time    0.0142
    SETDIJ:  cpu time    0.0032: real time    0.0032
    EDDIAG:  cpu time    1.5488: real time    1.5526
  RMM-DIIS:  cpu time    4.8144: real time    4.8266
    ORTHCH:  cpu time    0.4862: real time    0.4875
       DOS:  cpu time    0.0040: real time    0.0040
    CHARGE:  cpu time    0.2837: real time    0.2844
    MIXING:  cpu time    0.0007: real time    0.0007
    --------------------------------------------
      LOOP:  cpu time    7.1551: real time    7.1733

 eigenvalue-minimisations  :  7721
 total energy-change (2. order) : 0.2005138E+02  (-0.6085340E+00)
 number of electron     641.0001446 magnetization 
 augmentation part      198.9825483 magnetization 

 Broyden mixing:
  rms(total) = 0.24830E+01    rms(broyden)= 0.24829E+01
  rms(prec ) = 0.27721E+01
  weight for this iteration     100.00

 eigenvalues of (default mixing * dielectric matrix)
  average eigenvalue GAMMA=   0.7053
  2.1508  1.1728  0.3008  0.2515  0.2515  0.1044

 Free energy of the ion-electron system (eV)
  ---------------------------------------------------
  alpha Z        PSCENC =      1139.09295860
  Ewald energy   TEWEN  =    407097.26515967
  -Hartree energ DENC   =   -454425.80207767
  -exchange      EXHF   =         0.00000000
  -V(xc)+E(xc)   XCENC  =       194.60001834
  PAW double counting   =     56454.43607856   -54822.09500439
  entropy T*S    EENTRO =         0.01917762
  eigenvalues    EBANDS =     -2693.14570752
  atomic energy  EATOM  =     46675.64354841
  Solvation  Ediel_sol  =         0.00000000
  ---------------------------------------------------
  free energy    TOTEN  =      -379.98584838 eV

  energy without entropy =     -380.00502600  energy(sigma->0) =     -379.99224092


--------------------------------------------------------------------------------------------------------




--------------------------------------- Iteration      1(  12)  ---------------------------------------


    POTLOK:  cpu time    0.0113: real time    0.0115
    SETDIJ:  cpu time    0.0032: real time    0.0032
    EDDIAG:  cpu time    1.5500: real time    1.5540
  RMM-DIIS:  cpu time    4.7923: real time    4.8043
    ORTHCH:  cpu time    0.4885: real time    0.4898
       DOS:  cpu time    0.0041: real time    0.0041
    CHARGE:  cpu time    0.2841: real time    0.2847
    MIXING:  cpu time    0.0008: real time    0.0008
    --------------------------------------------
      LOOP:  cpu time    7.1343: real time    7.1525

 eigenvalue-minimisations  :  7723
 total energy-change (2. order) : 0.2907337E+01  (-0.2429462E+00)
 number of electron     641.0001434 magnetization 
 augmentation part      199.0444547 magnetization 

 Broyden mixing:
  rms(total) = 0.18315E+01    rms(broyden)= 0.18315E+01
  rms(prec ) = 0.19868E+01
  weight for this iteration     100.00

 eigenvalues of (default mixing * dielectric matrix)
  average eigenvalue GAMMA=   0.6464
  2.0973  1.0820  0.3802  0.3802  0.2960  0.1849  0.1042

 Free energy of the ion-electron system (eV)
  ---------------------------------------------------
  alpha Z        PSCENC =      1139.09295860
  Ewald energy   TEWEN  =    407097.26515967
  -Hartree energ DENC   =   -454408.95373820
  -exchange      EXHF   =         0.00000000
  -V(xc)+E(xc)   XCENC  =       194.77626261
  PAW double counting   =     56376.38704695   -54742.85748329
  entropy T*S    EENTRO =        -0.01346452
  eigenvalues    EBANDS =     -2708.41880149
  atomic energy  EATOM  =     46675.64354841
  Solvation  Ediel_sol  =         0.00000000
  ---------------------------------------------------
  free energy    TOTEN  =      -377.07851124 eV

  energy without entropy =     -377.06504672  energy(sigma->0) =     -377.07402307


--------------------------------------------------------------------------------------------------------




--------------------------------------- Iteration      1(  13)  ---------------------------------------


    POTLOK:  cpu time    0.0114: real time    0.0157
    SETDIJ:  cpu time    0.0031: real time    0.0031
    EDDIAG:  cpu time    1.5459: real time    1.5499
  RMM-DIIS:  cpu time    4.8416: real time    4.8540
    ORTHCH:  cpu time    0.4892: real time    0.4923
       DOS:  cpu time    0.0041: real time    0.0041
    CHARGE:  cpu time    0.2856: real time    0.2863
    MIXING:  cpu time    0.0011: real time    0.0011
    --------------------------------------------
      LOOP:  cpu time    7.1821: real time    7.2065

 eigenvalue-minimisations  :  7751
 total energy-change (2. order) : 0.1428580E+01  (-0.1419753E+00)
 number of electron     641.0001451 magnetization 
 augmentation part      199.0974100 magnetization 

 Broyden mixing:
  rms(total) = 0.12454E+01    rms(broyden)= 0.12454E+01
  rms(prec ) = 0.13643E+01
  weight for this iteration     100.00

 eigenvalues of (default mixing * dielectric matrix)
  average eigenvalue GAMMA=   0.6488
  2.1274  1.1006  0.5575  0.5575  0.2800  0.2800  0.1829  0.1046

 Free energy of the ion-electron system (eV)
  ---------------------------------------------------
  alpha Z        PSCENC =      1139.09295860
  Ewald energy   TEWEN  =    407097.26515967
  -Hartree energ DENC   =   -454402.48730603
  -exchange      EXHF   =         0.00000000
  -V(xc)+E(xc)   XCENC  =       194.87851106
  PAW double counting   =     56277.32689797   -54642.54045377
  entropy T*S    EENTRO =        -0.03654434
  eigenvalues    EBANDS =     -2714.79270332
  atomic energy  EATOM  =     46675.64354841
  Solvation  Ediel_sol  =         0.00000000
  ---------------------------------------------------
  free energy    TOTEN  =      -375.64993174 eV

  energy without entropy =     -375.61338741  energy(sigma->0) =     -375.63775030


--------------------------------------------------------------------------------------------------------




--------------------------------------- Iteration      1(  14)  ---------------------------------------


    POTLOK:  cpu time    0.0133: real time    0.0155
    SETDIJ:  cpu time    0.0033: real time    0.0063
    EDDIAG:  cpu time    1.5467: real time    1.5509
  RMM-DIIS:  cpu time    4.8062: real time    4.8185
    ORTHCH:  cpu time    0.4894: real time    0.4905
       DOS:  cpu time    0.0040: real time    0.0041
    CHARGE:  cpu time    0.2852: real time    0.2860
    MIXING:  cpu time    0.0013: real time    0.0013
    --------------------------------------------
      LOOP:  cpu time    7.1494: real time    7.1730

 eigenvalue-minimisations  :  7733
 total energy-change (2. order) : 0.1081961E+01  (-0.1149559E+00)
 number of electron     641.0001520 magnetization 
 augmentation part      199.0497840 magnetization 

 Broyden mixing:
  rms(total) = 0.69445E+00    rms(broyden)= 0.69441E+00
  rms(prec ) = 0.74493E+00
  weight for this iteration     100.00

 eigenvalues of (default mixing * dielectric matrix)
  average eigenvalue GAMMA=   0.6654
  2.1506  1.1919  0.7528  0.7528  0.2849  0.2849  0.2853  0.1810  0.1046

 Free energy of the ion-electron system (eV)
  ---------------------------------------------------
  alpha Z        PSCENC =      1139.09295860
  Ewald energy   TEWEN  =    407097.26515967
  -Hartree energ DENC   =   -454424.39928926
  -exchange      EXHF   =         0.00000000
  -V(xc)+E(xc)   XCENC  =       194.81410382
  PAW double counting   =     56299.30994029   -54664.88298025
  entropy T*S    EENTRO =        -0.04718694
  eigenvalues    EBANDS =     -2691.36422468
  atomic energy  EATOM  =     46675.64354841
  Solvation  Ediel_sol  =         0.00000000
  ---------------------------------------------------
  free energy    TOTEN  =      -374.56797034 eV

  energy without entropy =     -374.52078340  energy(sigma->0) =     -374.55224136


--------------------------------------------------------------------------------------------------------




--------------------------------------- Iteration      1(  15)  ---------------------------------------


    POTLOK:  cpu time    0.0109: real time    0.0128
    SETDIJ:  cpu time    0.0032: real time    0.0032
    EDDIAG:  cpu time    1.5496: real time    1.5534
  RMM-DIIS:  cpu time    4.7693: real time    4.7814
    ORTHCH:  cpu time    0.4911: real time    0.4922
       DOS:  cpu time    0.0040: real time    0.0040
    CHARGE:  cpu time    0.2855: real time    0.2862
    MIXING:  cpu time    0.0011: real time    0.0011
    --------------------------------------------
      LOOP:  cpu time    7.1146: real time    7.1344

 eigenvalue-minimisations  :  7737
 total energy-change (2. order) : 0.4048853E-01  (-0.6291606E-01)
 number of electron     641.0001575 magnetization 
 augmentation part      198.9069932 magnetization 

 Broyden mixing:
  rms(total) = 0.65756E+00    rms(broyden)= 0.65752E+00
  rms(prec ) = 0.78365E+00
  weight for this iteration     100.00

 eigenvalues of (default mixing * dielectric matrix)
  average eigenvalue GAMMA=   0.6188
  2.1140  1.1931  0.7881  0.7881  0.3064  0.2742  0.2742  0.1045  0.1839  0.1616

 Free energy of the ion-electron system (eV)
  ---------------------------------------------------
  alpha Z        PSCENC =      1139.09295860
  Ewald energy   TEWEN  =    407097.26515967
  -Hartree energ DENC   =   -454458.57467138
  -exchange      EXHF   =         0.00000000
  -V(xc)+E(xc)   XCENC  =       194.79161393
  PAW double counting   =     56320.99642977   -54686.79307408
  entropy T*S    EENTRO =        -0.06569001
  eigenvalues    EBANDS =     -2656.88375672
  atomic energy  EATOM  =     46675.64354841
  Solvation  Ediel_sol  =         0.00000000
  ---------------------------------------------------
  free energy    TOTEN  =      -374.52748181 eV

  energy without entropy =     -374.46179180  energy(sigma->0) =     -374.50558514


--------------------------------------------------------------------------------------------------------




--------------------------------------- Iteration      1(  16)  ---------------------------------------


    POTLOK:  cpu time    0.0108: real time    0.0110
    SETDIJ:  cpu time    0.0032: real time    0.0032
    EDDIAG:  cpu time    1.5567: real time    1.5605
  RMM-DIIS:  cpu time    5.0006: real time    5.0134
    ORTHCH:  cpu time    0.4901: real time    0.4914
       DOS:  cpu time    0.0041: real time    0.0041
    CHARGE:  cpu time    0.2862: real time    0.2869
    MIXING:  cpu time    0.0014: real time    0.0014
    --------------------------------------------
      LOOP:  cpu time    7.3532: real time    7.3719

 eigenvalue-minimisations  :  8064
 total energy-change (2. order) : 0.1459115E+00  (-0.7365840E-02)
 number of electron     641.0001575 magnetization 
 augmentation part      198.8999275 magnetization 

 Broyden mixing:
  rms(total) = 0.48063E+00    rms(broyden)= 0.48063E+00
  rms(prec ) = 0.58151E+00
  weight for this iteration     100.00

 eigenvalues of (default mixing * dielectric matrix)
  average eigenvalue GAMMA=   0.5962
  2.0366  1.1758  0.8445  0.8445  0.2913  0.2913  0.3078  0.3078  0.1045  0.1773
  0.1773

 Free energy of the ion-electron system (eV)
  ---------------------------------------------------
  alpha Z        PSCENC =      1139.09295860
  Ewald energy   TEWEN  =    407097.26515967
  -Hartree energ DENC   =   -454461.68036995
  -exchange      EXHF   =         0.00000000
  -V(xc)+E(xc)   XCENC  =       194.85146950
  PAW double counting   =     56290.74349198   -54656.08825524
  entropy T*S    EENTRO =        -0.06253437
  eigenvalues    EBANDS =     -2654.14703891
  atomic energy  EATOM  =     46675.64354841
  Solvation  Ediel_sol  =         0.00000000
  ---------------------------------------------------
  free energy    TOTEN  =      -374.38157032 eV

  energy without entropy =     -374.31903595  energy(sigma->0) =     -374.36072553


--------------------------------------------------------------------------------------------------------




--------------------------------------- Iteration      1(  17)  ---------------------------------------


    POTLOK:  cpu time    0.0108: real time    0.0110
    SETDIJ:  cpu time    0.0031: real time    0.0031
    EDDIAG:  cpu time    1.5514: real time    1.5554
  RMM-DIIS:  cpu time    4.8329: real time    4.8450
    ORTHCH:  cpu time    0.4886: real time    0.4900
       DOS:  cpu time    0.0040: real time    0.0040
    CHARGE:  cpu time    0.2838: real time    0.2845
    MIXING:  cpu time    0.0015: real time    0.0015
    --------------------------------------------
      LOOP:  cpu time    7.1763: real time    7.1945

 eigenvalue-minimisations  :  7777
 total energy-change (2. order) : 0.1076066E+00  (-0.2435811E-02)
 number of electron     641.0001571 magnetization 
 augmentation part      198.8920808 magnetization 

 Broyden mixing:
  rms(total) = 0.32309E+00    rms(broyden)= 0.32308E+00
  rms(prec ) = 0.37599E+00
  weight for this iteration     100.00

 eigenvalues of (default mixing * dielectric matrix)
  average eigenvalue GAMMA=   0.6820
  1.8269  1.8269  1.3732  0.7194  0.7194  0.4391  0.2977  0.2977  0.2492  0.1045
  0.1813  0.1487

 Free energy of the ion-electron system (eV)
  ---------------------------------------------------
  alpha Z        PSCENC =      1139.09295860
  Ewald energy   TEWEN  =    407097.26515967
  -Hartree energ DENC   =   -454463.51700012
  -exchange      EXHF   =         0.00000000
  -V(xc)+E(xc)   XCENC  =       194.94464248
  PAW double counting   =     56245.40716762   -54610.05314477
  entropy T*S    EENTRO =        -0.05539941
  eigenvalues    EBANDS =     -2653.00189616
  atomic energy  EATOM  =     46675.64354841
  Solvation  Ediel_sol  =         0.00000000
  ---------------------------------------------------
  free energy    TOTEN  =      -374.27396368 eV

  energy without entropy =     -374.21856426  energy(sigma->0) =     -374.25549720


--------------------------------------------------------------------------------------------------------




--------------------------------------- Iteration      1(  18)  ---------------------------------------


    POTLOK:  cpu time    0.0119: real time    0.0138
    SETDIJ:  cpu time    0.0031: real time    0.0031
    EDDIAG:  cpu time    1.5474: real time    1.5513
  RMM-DIIS:  cpu time    4.8248: real time    4.8370
    ORTHCH:  cpu time    0.4891: real time    0.4903
       DOS:  cpu time    0.0041: real time    0.0041
    CHARGE:  cpu time    0.2842: real time    0.2849
    MIXING:  cpu time    0.0014: real time    0.0014
    --------------------------------------------
      LOOP:  cpu time    7.1662: real time    7.1861

 eigenvalue-minimisations  :  7735
 total energy-change (2. order) : 0.5163046E-01  (-0.8455903E-02)
 number of electron     641.0001562 magnetization 
 augmentation part      198.8559406 magnetization 

 Broyden mixing:
  rms(total) = 0.22683E+00    rms(broyden)= 0.22681E+00
  rms(prec ) = 0.24793E+00
  weight for this iteration     100.00

 eigenvalues of (default mixing * dielectric matrix)
  average eigenvalue GAMMA=   0.7141
  2.1390  2.1390  1.4121  0.7009  0.7009  0.6419  0.2967  0.2967  0.2653  0.2542
  0.1045  0.1812  0.1506

 Free energy of the ion-electron system (eV)
  ---------------------------------------------------
  alpha Z        PSCENC =      1139.09295860
  Ewald energy   TEWEN  =    407097.26515967
  -Hartree energ DENC   =   -454473.71259258
  -exchange      EXHF   =         0.00000000
  -V(xc)+E(xc)   XCENC  =       195.20598239
  PAW double counting   =     56155.26598361   -54518.29742929
  entropy T*S    EENTRO =        -0.04123142
  eigenvalues    EBANDS =     -2644.64471261
  atomic energy  EATOM  =     46675.64354841
  Solvation  Ediel_sol  =         0.00000000
  ---------------------------------------------------
  free energy    TOTEN  =      -374.22233322 eV

  energy without entropy =     -374.18110180  energy(sigma->0) =     -374.20858941


--------------------------------------------------------------------------------------------------------




--------------------------------------- Iteration      1(  19)  ---------------------------------------


    POTLOK:  cpu time    0.0109: real time    0.0126
    SETDIJ:  cpu time    0.0031: real time    0.0031
    EDDIAG:  cpu time    1.5480: real time    1.5519
  RMM-DIIS:  cpu time    4.7791: real time    4.7912
    ORTHCH:  cpu time    0.4917: real time    0.4928
       DOS:  cpu time    0.0039: real time    0.0039
    CHARGE:  cpu time    0.2863: real time    0.2871
    MIXING:  cpu time    0.0016: real time    0.0016
    --------------------------------------------
      LOOP:  cpu time    7.1247: real time    7.1444

 eigenvalue-minimisations  :  7729
 total energy-change (2. order) : 0.2627075E-01  (-0.2924335E-02)
 number of electron     641.0001559 magnetization 
 augmentation part      198.8498972 magnetization 

 Broyden mixing:
  rms(total) = 0.12547E+00    rms(broyden)= 0.12546E+00
  rms(prec ) = 0.13647E+00
  weight for this iteration     100.00

 eigenvalues of (default mixing * dielectric matrix)
  average eigenvalue GAMMA=   0.6858
  1.9893  1.7435  1.7435  0.8298  0.6919  0.6919  0.2971  0.2971  0.3472  0.2955
  0.1045  0.2384  0.1815  0.1499

 Free energy of the ion-electron system (eV)
  ---------------------------------------------------
  alpha Z        PSCENC =      1139.09295860
  Ewald energy   TEWEN  =    407097.26515967
  -Hartree energ DENC   =   -454481.64010801
  -exchange      EXHF   =         0.00000000
  -V(xc)+E(xc)   XCENC  =       195.25560022
  PAW double counting   =     56194.60613364   -54557.86625046
  entropy T*S    EENTRO =        -0.04151492
  eigenvalues    EBANDS =     -2636.51158961
  atomic energy  EATOM  =     46675.64354841
  Solvation  Ediel_sol  =         0.00000000
  ---------------------------------------------------
  free energy    TOTEN  =      -374.19606247 eV

  energy without entropy =     -374.15454755  energy(sigma->0) =     -374.18222416


--------------------------------------------------------------------------------------------------------




--------------------------------------- Iteration      1(  20)  ---------------------------------------


    POTLOK:  cpu time    0.0112: real time    0.0114
    SETDIJ:  cpu time    0.0031: real time    0.0031
    EDDIAG:  cpu time    1.5495: real time    1.5534
  RMM-DIIS:  cpu time    4.8181: real time    4.8305
    ORTHCH:  cpu time    0.4898: real time    0.4910
       DOS:  cpu time    0.0040: real time    0.0040
    CHARGE:  cpu time    0.2852: real time    0.2859
    MIXING:  cpu time    0.0018: real time    0.0018
    --------------------------------------------
      LOOP:  cpu time    7.1628: real time    7.1812

 eigenvalue-minimisations  :  7735
 total energy-change (2. order) : 0.3819939E-02  (-0.1024740E-02)
 number of electron     641.0001562 magnetization 
 augmentation part      198.8547067 magnetization 

 Broyden mixing:
  rms(total) = 0.85945E-01    rms(broyden)= 0.85940E-01
  rms(prec ) = 0.10025E+00
  weight for this iteration     100.00

 eigenvalues of (default mixing * dielectric matrix)
  average eigenvalue GAMMA=   0.6878
  2.1857  1.6481  1.6481  0.9001  0.7479  0.7479  0.5595  0.2999  0.2999  0.3194
  0.2950  0.1045  0.2293  0.1815  0.1500

 Free energy of the ion-electron system (eV)
  ---------------------------------------------------
  alpha Z        PSCENC =      1139.09295860
  Ewald energy   TEWEN  =    407097.26515967
  -Hartree energ DENC   =   -454483.48854335
  -exchange      EXHF   =         0.00000000
  -V(xc)+E(xc)   XCENC  =       195.22212302
  PAW double counting   =     56231.95535522   -54595.66084747
  entropy T*S    EENTRO =        -0.04423371
  eigenvalues    EBANDS =     -2634.17776292
  atomic energy  EATOM  =     46675.64354841
  Solvation  Ediel_sol  =         0.00000000
  ---------------------------------------------------
  free energy    TOTEN  =      -374.19224253 eV

  energy without entropy =     -374.14800881  energy(sigma->0) =     -374.17749796


--------------------------------------------------------------------------------------------------------




--------------------------------------- Iteration      1(  21)  ---------------------------------------


    POTLOK:  cpu time    0.0109: real time    0.0111
    SETDIJ:  cpu time    0.0032: real time    0.0032
    EDDIAG:  cpu time    1.5542: real time    1.5580
  RMM-DIIS:  cpu time    4.8117: real time    4.8240
    ORTHCH:  cpu time    0.4927: real time    0.4940
       DOS:  cpu time    0.0042: real time    0.0042
    CHARGE:  cpu time    0.2858: real time    0.2865
    MIXING:  cpu time    0.0017: real time    0.0017
    --------------------------------------------
      LOOP:  cpu time    7.1642: real time    7.1825

 eigenvalue-minimisations  :  7748
 total energy-change (2. order) : 0.1213354E-03  (-0.4458771E-03)
 number of electron     641.0001564 magnetization 
 augmentation part      198.8550924 magnetization 

 Broyden mixing:
  rms(total) = 0.78791E-01    rms(broyden)= 0.78790E-01
  rms(prec ) = 0.94124E-01
  weight for this iteration     100.00

 eigenvalues of (default mixing * dielectric matrix)
  average eigenvalue GAMMA=   0.6808
  2.2774  1.6535  1.6535  1.0242  0.7636  0.7636  0.6303  0.3002  0.3002  0.3460
  0.3132  0.1045  0.2320  0.1500  0.1815  0.1986

 Free energy of the ion-electron system (eV)
  ---------------------------------------------------
  alpha Z        PSCENC =      1139.09295860
  Ewald energy   TEWEN  =    407097.26515967
  -Hartree energ DENC   =   -454485.63866312
  -exchange      EXHF   =         0.00000000
  -V(xc)+E(xc)   XCENC  =       195.23334083
  PAW double counting   =     56243.43021897   -54607.19894642
  entropy T*S    EENTRO =        -0.04470494
  eigenvalues    EBANDS =     -2631.97503320
  atomic energy  EATOM  =     46675.64354841
  Solvation  Ediel_sol  =         0.00000000
  ---------------------------------------------------
  free energy    TOTEN  =      -374.19212119 eV

  energy without entropy =     -374.14741625  energy(sigma->0) =     -374.17721954


--------------------------------------------------------------------------------------------------------




--------------------------------------- Iteration      1(  22)  ---------------------------------------


    POTLOK:  cpu time    0.0117: real time    0.0142
    SETDIJ:  cpu time    0.0034: real time    0.0045
[...]
      8.41034      0.00096     16.84747        -0.000269      0.007420      0.000795
      9.79828      2.43709     16.87387         0.000461     -0.001800     -0.003961
     11.21153      0.00426     16.84428         0.000157      0.001590      0.000283
     12.61142      2.42858     16.84370         0.000635      0.002597      0.001999
      8.41037      3.23998     19.29112        -0.002789     -0.007712     -0.259588
      7.00116      0.80606     19.14793         0.000749     -0.003256     -0.001365
     11.22167      3.23609     19.14729         0.003564      0.001426      0.001488
      9.81816      0.80528     19.14801         0.001653     -0.001880     -0.000865
     11.21434      8.09326     12.28925        -0.021182      0.012547     -0.049158
      9.81254      5.66527     12.28925        -0.001992     -0.001252     -0.057074
     14.01794      8.09326     12.28925         0.000126      0.003754     -0.050460
     12.61614      5.66527     12.28925        -0.003782     -0.002115     -0.049972
     14.01806      6.47467     14.57818         0.000501      0.000739      0.058277
     15.41986      8.90266     14.57818        -0.015337      0.013155      0.032281
     11.21446      6.47467     14.57818        -0.003442     -0.019095      0.030548
     12.61626      8.90266     14.57818         0.013607      0.013767      0.032547
     11.21381      4.85687     16.84782        -0.002074     -0.002875     -0.003280
     12.61545      7.28474     16.84654        -0.000766     -0.000393      0.007598
      2.80330      4.85545     16.84660         0.000599     -0.000480     -0.000562
     15.42013      7.28513     16.84696         0.002048     -0.005211      0.004247
     11.21519      8.09449     19.14947        -0.001061      0.001666     -0.003086
      9.81409      5.67653     19.14751         0.001465     -0.002400      0.001940
     14.01690      8.09531     19.14864         0.001347      0.000330     -0.001657
     12.61673      5.66721     19.14851        -0.002752     -0.001267     -0.001292
      8.41378      3.23016     20.83325        -0.001291      0.002499      0.279286
 -----------------------------------------------------------------------------------
    total drift:                                0.012017     -0.032526     -0.699156


--------------------------------------------------------------------------------------------------------



  FREE ENERGIE OF THE ION-ELECTRON SYSTEM (eV)
  ---------------------------------------------------
  free  energy   TOTEN  =      -374.18444211 eV

  energy  without entropy=     -374.14407775  energy(sigma->0) =     -374.17098732
 
 d Force = 0.6593657E-04[-0.838E-02, 0.851E-02]  d Energy = 0.6307817E-03-0.565E-03
 d Force =-0.1133847E+02[-0.114E+02,-0.113E+02]  d Ewald  =-0.1133820E+02-0.273E-03


--------------------------------------------------------------------------------------------------------


    POTLOK:  cpu time    0.0148: real time    0.0150


--------------------------------------------------------------------------------------------------------


 stress matrix after NEB project (eV)
    -44.08275      0.03100      0.01600
      0.03100    -44.05740     -0.05245
      0.01600     -0.05245    -40.77922
  FORCES: max atom, RMS     0.279300    0.034643
  FORCE total and by dimension    0.279300    0.279286
  Stress total and by dimension   74.480170   44.082747
 Finite differences progress:
  Degree of freedom:   3/  3
  Displacement:        2/  2
  Total:               6/  6
 
 SECOND DERIVATIVES (NOT SYMMETRIZED)
 ------------------------------------
              65X         65Y         65Z 
 65X    -0.440478    0.000253   -0.040454
 65Y    -0.016839   -0.455620    0.131928
 65Z    -0.031916    0.096985  -18.765611
 
 
 Eigenvectors and eigenvalues of the dynamical matrix
 ----------------------------------------------------
 
 
   1 f  =   67.723777 THz   425.521041 2PiTHz 2259.021973 cm-1   280.083129 meV
             X         Y         Z           dx          dy          dz
      2.803544  3.237286 12.289255            0           0           0  
      1.401744  0.809297 12.289255            0           0           0  
      5.607144  3.237286 12.289255            0           0           0  
      4.205344  0.809297 12.289255            0           0           0  
      5.607256  1.618692 14.578180            0           0           0  
      7.009056  4.046680 14.578180            0           0           0  
      2.803656  1.618692 14.578180            0           0           0  
      4.205456  4.046680 14.578180            0           0           0  
      2.803465  0.000321 16.845847            0           0           0  
      4.209493  2.428908 16.843923            0           0           0  
      5.609625  0.004094 16.844698            0           0           0  
      7.022121  2.436773 16.873496            0           0           0  
      2.802449  3.239528 19.148663            0           0           0  
      1.403083  0.810556 19.149409            0           0           0  
      5.598054  3.236609 19.147265            0           0           0  
      4.203030  0.809903 19.149523            0           0           0  
      5.607144  8.093264 12.289255            0           0           0  
      4.205344  5.665275 12.289255            0           0           0  
      8.410744  8.093264 12.289255            0           0           0  
      7.008944  5.665275 12.289255            0           0           0  
      8.410856  6.474669 14.578180            0           0           0  
      9.812656  8.902658 14.578180            0           0           0  
      5.607256  6.474669 14.578180            0           0           0  
      7.009056  8.902658 14.578180            0           0           0  
      5.606849  4.856706 16.847532            0           0           0  
      7.010469  7.280714 16.843663            0           0           0  
      8.409956  4.839708 16.874963            0           0           0  
      9.810390  7.280518 16.843421            0           0           0  
      5.605626  8.095389 19.149099            0           0           0  
      4.204088  5.667402 19.148480            0           0           0  
      8.410773  8.097070 19.148588            0           0           0  
      7.006213  5.677164 19.147376            0           0           0  
      8.410744  3.237286 12.289255            0           0           0  
      7.008944  0.809297 12.289255            0           0           0  
     11.214344  3.237286 12.289255            0           0           0  
      9.812544  0.809297 12.289255            0           0           0  
     11.214456  1.618692 14.578180            0           0           0  
     12.616256  4.046680 14.578180            0           0           0  
      8.410856  1.618692 14.578180            0           0           0  
      9.812656  4.046680 14.578180            0           0           0  
      8.410342  0.000963 16.847472            0           0           0  
      9.798277  2.437093 16.873868            0           0           0  
     11.211534  0.004265 16.844280            0           0           0  
     12.611418  2.428582 16.843697            0           0           0  
      8.410370  3.239982 19.291119            0           0           0  
      7.001162  0.806058 19.147934            0           0           0  
     11.221672  3.236089 19.147293            0           0           0  
      9.818162  0.805278 19.148007            0           0           0  
     11.214344  8.093264 12.289255            0           0           0  
      9.812544  5.665275 12.289255            0           0           0  
     14.017944  8.093264 12.289255            0           0           0  
     12.616144  5.665275 12.289255            0           0           0  
     14.018056  6.474669 14.578180            0           0           0  
     15.419856  8.902658 14.578180            0           0           0  
     11.214456  6.474669 14.578180            0           0           0  
     12.616256  8.902658 14.578180            0           0           0  
     11.213813  4.856869 16.847824            0           0           0  
     12.615455  7.284736 16.846541            0           0           0  
      2.803300  4.855448 16.846595            0           0           0  
     15.420134  7.285129 16.846955            0           0           0  
     11.215186  8.094493 19.149472            0           0           0  
      9.814091  5.676530 19.147506            0           0           0  
     14.016902  8.095306 19.148642            0           0           0  
     12.616734  5.667212 19.148505            0           0           0  
      8.413778  3.230158 20.848251     0.001972   -0.006250    0.999979  
 
   2 f  =   10.589653 THz    66.536751 2PiTHz  353.232786 cm-1    43.795300 meV
             X         Y         Z           dx          dy          dz
      2.803544  3.237286 12.289255            0           0           0  
      1.401744  0.809297 12.289255            0           0           0  
      5.607144  3.237286 12.289255            0           0           0  
      4.205344  0.809297 12.289255            0           0           0  
      5.607256  1.618692 14.578180            0           0           0  
      7.009056  4.046680 14.578180            0           0           0  
      2.803656  1.618692 14.578180            0           0           0  
      4.205456  4.046680 14.578180            0           0           0  
      2.803465  0.000321 16.845847            0           0           0  
      4.209493  2.428908 16.843923            0           0           0  
      5.609625  0.004094 16.844698            0           0           0  
      7.022121  2.436773 16.873496            0           0           0  
      2.802449  3.239528 19.148663            0           0           0  
      1.403083  0.810556 19.149409            0           0           0  
      5.598054  3.236609 19.147265            0           0           0  
      4.203030  0.809903 19.149523            0           0           0  
      5.607144  8.093264 12.289255            0           0           0  
      4.205344  5.665275 12.289255            0           0           0  
      8.410744  8.093264 12.289255            0           0           0  
      7.008944  5.665275 12.289255            0           0           0  
      8.410856  6.474669 14.578180            0           0           0  
      9.812656  8.902658 14.578180            0           0           0  
      5.607256  6.474669 14.578180            0           0           0  
      7.009056  8.902658 14.578180            0           0           0  
      5.606849  4.856706 16.847532            0           0           0  
      7.010469  7.280714 16.843663            0           0           0  
      8.409956  4.839708 16.874963            0           0           0  
      9.810390  7.280518 16.843421            0           0           0  
      5.605626  8.095389 19.149099            0           0           0  
      4.204088  5.667402 19.148480            0           0           0  
      8.410773  8.097070 19.148588            0           0           0  
      7.006213  5.677164 19.147376            0           0           0  
      8.410744  3.237286 12.289255            0           0           0  
      7.008944  0.809297 12.289255            0           0           0  
     11.214344  3.237286 12.289255            0           0           0  
      9.812544  0.809297 12.289255            0           0           0  
     11.214456  1.618692 14.578180            0           0           0  
     12.616256  4.046680 14.578180            0           0           0  
      8.410856  1.618692 14.578180            0           0           0  
      9.812656  4.046680 14.578180            0           0           0  
      8.410342  0.000963 16.847472            0           0           0  
      9.798277  2.437093 16.873868            0           0           0  
     11.211534  0.004265 16.844280            0           0           0  
     12.611418  2.428582 16.843697            0           0           0  
      8.410370  3.239982 19.291119            0           0           0  
      7.001162  0.806058 19.147934            0           0           0  
     11.221672  3.236089 19.147293            0           0           0  
      9.818162  0.805278 19.148007            0           0           0  
     11.214344  8.093264 12.289255            0           0           0  
      9.812544  5.665275 12.289255            0           0           0  
     14.017944  8.093264 12.289255            0           0           0  
     12.616144  5.665275 12.289255            0           0           0  
     14.018056  6.474669 14.578180            0           0           0  
     15.419856  8.902658 14.578180            0           0           0  
     11.214456  6.474669 14.578180            0           0           0  
     12.616256  8.902658 14.578180            0           0           0  
     11.213813  4.856869 16.847824            0           0           0  
     12.615455  7.284736 16.846541            0           0           0  
      2.803300  4.855448 16.846595            0           0           0  
     15.420134  7.285129 16.846955            0           0           0  
     11.215186  8.094493 19.149472            0           0           0  
      9.814091  5.676530 19.147506            0           0           0  
     14.016902  8.095306 19.148642            0           0           0  
     12.616734  5.667212 19.148505            0           0           0  
      8.413778  3.230158 20.848251     0.419495    0.907745    0.004846  
 
   3 f  =   10.328284 THz    64.894522 2PiTHz  344.514458 cm-1    42.714364 meV
             X         Y         Z           dx          dy          dz
      2.803544  3.237286 12.289255            0           0           0  
      1.401744  0.809297 12.289255            0           0           0  
      5.607144  3.237286 12.289255            0           0           0  
      4.205344  0.809297 12.289255            0           0           0  
      5.607256  1.618692 14.578180            0           0           0  
      7.009056  4.046680 14.578180            0           0           0  
      2.803656  1.618692 14.578180            0           0           0  
      4.205456  4.046680 14.578180            0           0           0  
      2.803465  0.000321 16.845847            0           0           0  
      4.209493  2.428908 16.843923            0           0           0  
      5.609625  0.004094 16.844698            0           0           0  
      7.022121  2.436773 16.873496            0           0           0  
      2.802449  3.239528 19.148663            0           0           0  
      1.403083  0.810556 19.149409            0           0           0  
      5.598054  3.236609 19.147265            0           0           0  
      4.203030  0.809903 19.149523            0           0           0  
      5.607144  8.093264 12.289255            0           0           0  
      4.205344  5.665275 12.289255            0           0           0  
      8.410744  8.093264 12.289255            0           0           0  
      7.008944  5.665275 12.289255            0           0           0  
      8.410856  6.474669 14.578180            0           0           0  
      9.812656  8.902658 14.578180            0           0           0  
      5.607256  6.474669 14.578180            0           0           0  
      7.009056  8.902658 14.578180            0           0           0  
      5.606849  4.856706 16.847532            0           0           0  
      7.010469  7.280714 16.843663            0           0           0  
      8.409956  4.839708 16.874963            0           0           0  
      9.810390  7.280518 16.843421            0           0           0  
      5.605626  8.095389 19.149099            0           0           0  
      4.204088  5.667402 19.148480            0           0           0  
      8.410773  8.097070 19.148588            0           0           0  
      7.006213  5.677164 19.147376            0           0           0  
      8.410744  3.237286 12.289255            0           0           0  
      7.008944  0.809297 12.289255            0           0           0  
     11.214344  3.237286 12.289255            0           0           0  
      9.812544  0.809297 12.289255            0           0           0  
     11.214456  1.618692 14.578180            0           0           0  
     12.616256  4.046680 14.578180            0           0           0  
      8.410856  1.618692 14.578180            0           0           0  
      9.812656  4.046680 14.578180            0           0           0  
      8.410342  0.000963 16.847472            0           0           0  
      9.798277  2.437093 16.873868            0           0           0  
     11.211534  0.004265 16.844280            0           0           0  
     12.611418  2.428582 16.843697            0           0           0  
      8.410370  3.239982 19.291119            0           0           0  
      7.001162  0.806058 19.147934            0           0           0  
     11.221672  3.236089 19.147293            0           0           0  
      9.818162  0.805278 19.148007            0           0           0  
     11.214344  8.093264 12.289255            0           0           0  
      9.812544  5.665275 12.289255            0           0           0  
     14.017944  8.093264 12.289255            0           0           0  
     12.616144  5.665275 12.289255            0           0           0  
     14.018056  6.474669 14.578180            0           0           0  
     15.419856  8.902658 14.578180            0           0           0  
     11.214456  6.474669 14.578180            0           0           0  
     12.616256  8.902658 14.578180            0           0           0  
     11.213813  4.856869 16.847824            0           0           0  
     12.615455  7.284736 16.846541            0           0           0  
      2.803300  4.855448 16.846595            0           0           0  
     15.420134  7.285129 16.846955            0           0           0  
     11.215186  8.094493 19.149472            0           0           0  
      9.814091  5.676530 19.147506            0           0           0  
     14.016902  8.095306 19.148642            0           0           0  
     12.616734  5.667212 19.148505            0           0           0  
      8.413778  3.230158 20.848251     0.907755   -0.419477   -0.004411  
 
 Finite differences POTIM=  1.500000000000000E-002
     LOOP+:  cpu time   61.3800: real time   61.5878
    4ORBIT:  cpu time    0.0000: real time    0.0000

 total amount of memory used by VASP MPI-rank0   100095. kBytes
=======================================================================

   base      :      30000. kBytes
   nonlr-proj:       3366. kBytes
   fftplans  :       2189. kBytes
   grid      :       3331. kBytes
   one-center:         77. kBytes
   wavefun   :      61132. kBytes
 
  
  
 General timing and accounting informations for this job:
 ========================================================
  
                  Total CPU time used (sec):      579.891
                            User time (sec):      579.355
                          System time (sec):        0.536
                         Elapsed time (sec):      582.096
  
                   Maximum memory used (kb):      352316.
                   Average memory used (kb):           0.
  
                          Minor page faults:       102040
                          Major page faults:            0
                 Voluntary context switches:         1755
