 running on   64 total cores
 distrk:  each k-point on   64 cores,    1 groups
 distr:  one band on   16 cores,    4 groups
 using from now: INCAR     
 vasp.5.4.4.18Apr17-6-g9f103f2a35 (build May 23 2022 10:35:18) complex          
  
 POSCAR found type information on POSCAR  Pt H 
 POSCAR found :  2 types and      65 ions
 scaLAPACK will be used
 LDA part: xc-table for Pade appr. of Perdew
 POSCAR found type information on POSCAR  Pt H 
 POSCAR found :  2 types and      65 ions
 POSCAR, INCAR and KPOINTS ok, starting setup
 FFT: planning ...
 WAVECAR not read
 entering main loop
       N       E                     dE             d eps       ncg     rms          rms(c)
DAV:   1     0.419644876792E+04    0.41964E+04   -0.23266E+05  7704   0.112E+03
DAV:   2    -0.156322934716E+02   -0.42121E+04   -0.38618E+04  9632   0.253E+02
DAV:   3    -0.379955449399E+03   -0.36432E+03   -0.33257E+03  8904   0.716E+01
DAV:   4    -0.398757410518E+03   -0.18802E+02   -0.17144E+02 10424   0.141E+01
DAV:   5    -0.399315747696E+03   -0.55834E+00   -0.54706E+00  9512   0.249E+00    0.815E+01
RMM:   6    -0.386754356374E+03    0.12561E+02   -0.69256E+01  7714   0.134E+01    0.603E+01
RMM:   7    -0.474904758939E+03   -0.88150E+02   -0.16704E+02  7720   0.152E+01    0.802E+01
RMM:   8    -0.389707684759E+03    0.85197E+02   -0.48312E+01  7727   0.901E+00    0.362E+01
RMM:   9    -0.418221092355E+03   -0.28513E+02   -0.38936E+01  7717   0.724E+00    0.531E+01
RMM:  10    -0.400037230606E+03    0.18184E+02   -0.26844E+01  7707   0.577E+00    0.456E+01
RMM:  11    -0.379985848382E+03    0.20051E+02   -0.60853E+00  7721   0.317E+00    0.248E+01
RMM:  12    -0.377078511244E+03    0.29073E+01   -0.24295E+00  7723   0.190E+00    0.183E+01
RMM:  13    -0.375649931743E+03    0.14286E+01   -0.14198E+00  7751   0.138E+00    0.125E+01
RMM:  14    -0.374567970341E+03    0.10820E+01   -0.11496E+00  7733   0.130E+00    0.694E+00
RMM:  15    -0.374527481811E+03    0.40489E-01   -0.62916E-01  7737   0.919E-01    0.658E+00
RMM:  16    -0.374381570315E+03    0.14591E+00   -0.73658E-02  8064   0.295E-01    0.481E+00
RMM:  17    -0.374273963676E+03    0.10761E+00   -0.24358E-02  7777   0.192E-01    0.323E+00
RMM:  18    -0.374222333218E+03    0.51630E-01   -0.84559E-02  7735   0.355E-01    0.227E+00
RMM:  19    -0.374196062466E+03    0.26271E-01   -0.29243E-02  7729   0.216E-01    0.125E+00
RMM:  20    -0.374192242527E+03    0.38199E-02   -0.10247E-02  7735   0.131E-01    0.859E-01
RMM:  21    -0.374192121191E+03    0.12134E-03   -0.44588E-03  7748   0.807E-02    0.788E-01
RMM:  22    -0.374190652946E+03    0.14682E-02   -0.19269E-03  7783   0.532E-02    0.669E-01
RMM:  23    -0.374189289681E+03    0.13633E-02   -0.94447E-04  7734   0.388E-02    0.614E-01
RMM:  24    -0.374187159268E+03    0.21304E-02   -0.86786E-04  7725   0.345E-02    0.465E-01
RMM:  25    -0.374186174801E+03    0.98447E-03   -0.56343E-04  7737   0.279E-02    0.335E-01
RMM:  26    -0.374185479487E+03    0.69531E-03   -0.45614E-04  7750   0.235E-02    0.170E-01
RMM:  27    -0.374185353103E+03    0.12638E-03   -0.14950E-04  7836   0.133E-02    0.105E-01
RMM:  28    -0.374185359096E+03   -0.59936E-05   -0.35643E-05  5187   0.698E-03
   1 F= -.37418536E+03 E0= -.37417184E+03  d E =-.405449E-01
 Finite differences POTIM= 0.01500 DOF=   3
 bond charge predicted
       N       E                     dE             d eps       ncg     rms          rms(c)
DAV:   1    -0.374185309060E+03    0.44043E-04   -0.69005E-02  7824   0.297E-01    0.758E-02
RMM:   2    -0.374185805710E+03   -0.49665E-03   -0.54175E-04  7711   0.327E-02    0.245E-01
RMM:   3    -0.374185532765E+03    0.27294E-03   -0.11038E-04  7270   0.124E-02    0.125E-01
RMM:   4    -0.374185514735E+03    0.18031E-04   -0.96869E-05  7574   0.122E-02    0.964E-02
RMM:   5    -0.374185633717E+03   -0.11898E-03   -0.86458E-05  7466   0.116E-02    0.101E-01
RMM:   6    -0.374185638724E+03   -0.50065E-05   -0.47765E-05  6171   0.908E-03
   2 F= -.37418564E+03 E0= -.37417216E+03  d E =-.404479E-01
 Finite differences progress:
  Degree of freedom:   1/  3
  Displacement:        1/  2
  Total:               1/  6
 bond charge predicted
       N       E                     dE             d eps       ncg     rms          rms(c)
DAV:   1    -0.374185657238E+03   -0.23521E-04   -0.27570E-01  7760   0.589E-01    0.127E-01
RMM:   2    -0.374185845842E+03   -0.18860E-03   -0.12866E-03  7680   0.524E-02    0.120E-01
RMM:   3    -0.374186769829E+03   -0.92399E-03   -0.36313E-04  7700   0.224E-02    0.372E-01
RMM:   4    -0.374186321242E+03    0.44859E-03   -0.33158E-04  7676   0.208E-02    0.262E-01
RMM:   5    -0.374185981427E+03    0.33981E-03   -0.23298E-04  7653   0.191E-02    0.104E-01
RMM:   6    -0.374185947048E+03    0.34379E-04   -0.77998E-05  7416   0.112E-02    0.342E-02
RMM:   7    -0.374185968931E+03   -0.21883E-04   -0.20542E-05  4270   0.611E-03    0.297E-02
RMM:   8    -0.374185996519E+03   -0.27587E-04   -0.73239E-06  4079   0.408E-03    0.157E-02
RMM:   9    -0.374186006263E+03   -0.97445E-05   -0.19410E-06  3825   0.202E-03
   3 F= -.37418601E+03 E0= -.37417254E+03  d E =-.404048E-01
 Finite differences progress:
  Degree of freedom:   1/  3
  Displacement:        2/  2
  Total:               2/  6
 bond charge predicted
       N       E                     dE             d eps       ncg     rms          rms(c)
DAV:   1    -0.374186017712E+03   -0.21193E-04   -0.13788E-01  7744   0.416E-01    0.900E-02
RMM:   2    -0.374186079922E+03   -0.62210E-04   -0.60557E-04  7216   0.359E-02    0.628E-02
RMM:   3    -0.374186295486E+03   -0.21556E-03   -0.19906E-04  7692   0.175E-02    0.170E-01
RMM:   4    -0.374186423316E+03   -0.12783E-03   -0.13917E-04  7614   0.141E-02    0.203E-01
RMM:   5    -0.374186158354E+03    0.26496E-03   -0.58290E-05  6396   0.902E-03    0.628E-02
RMM:   6    -0.374186149294E+03    0.90597E-05   -0.21940E-05  4398   0.636E-03
   4 F= -.37418615E+03 E0= -.37417267E+03  d E =-.404431E-01
 Finite differences progress:
  Degree of freedom:   2/  3
  Displacement:        1/  2
  Total:               3/  6
 bond charge predicted
       N       E                     dE             d eps       ncg     rms          rms(c)
DAV:   1    -0.374185975905E+03    0.18245E-03   -0.27561E-01  7728   0.587E-01    0.129E-01
RMM:   2    -0.374186108784E+03   -0.13288E-03   -0.13107E-03  7705   0.529E-02    0.116E-01
RMM:   3    -0.374186269819E+03   -0.16104E-03   -0.36258E-04  7721   0.238E-02    0.187E-01
RMM:   4    -0.374186561785E+03   -0.29197E-03   -0.28466E-04  7680   0.206E-02    0.260E-01
RMM:   5    -0.374186308543E+03    0.25324E-03   -0.15380E-04  7512   0.142E-02    0.181E-01
RMM:   6    -0.374186103743E+03    0.20480E-03   -0.86693E-05  7528   0.116E-02    0.424E-02
RMM:   7    -0.374186099778E+03    0.39651E-05   -0.23637E-05  4437   0.642E-03
   5 F= -.37418610E+03 E0= -.37417268E+03  d E =-.402677E-01
 Finite differences progress:
  Degree of freedom:   2/  3
  Displacement:        2/  2
  Total:               4/  6
 bond charge predicted
       N       E                     dE             d eps       ncg     rms          rms(c)
DAV:   1    -0.374183796587E+03    0.23072E-02   -0.14248E-01  7736   0.422E-01    0.142E-01
RMM:   2    -0.374183973146E+03   -0.17656E-03   -0.12708E-03  7669   0.468E-02    0.156E-01
RMM:   3    -0.374185553043E+03   -0.15799E-02   -0.51518E-04  7696   0.253E-02    0.496E-01
RMM:   4    -0.374183998458E+03    0.15546E-02   -0.41263E-04  7681   0.240E-02    0.186E-01
RMM:   5    -0.374183901079E+03    0.97379E-04   -0.22711E-04  7669   0.189E-02    0.120E-01
RMM:   6    -0.374183822992E+03    0.78087E-04   -0.11766E-04  7606   0.137E-02    0.472E-02
RMM:   7    -0.374183808329E+03    0.14663E-04   -0.26097E-05  4514   0.687E-03    0.211E-02
RMM:   8    -0.374183811326E+03   -0.29966E-05   -0.82959E-06  4035   0.414E-03
   6 F= -.37418381E+03 E0= -.37417038E+03  d E =-.403069E-01
 Finite differences progress:
  Degree of freedom:   3/  3
  Displacement:        1/  2
  Total:               5/  6
 bond charge predicted
       N       E                     dE             d eps       ncg     rms          rms(c)
DAV:   1    -0.374184488308E+03   -0.67998E-03   -0.29947E-01  7696   0.610E-01    0.266E-01
RMM:   2    -0.374185161989E+03   -0.67368E-03   -0.40310E-03  7722   0.771E-02    0.314E-01
RMM:   3    -0.374190905133E+03   -0.57431E-02   -0.18662E-03  7743   0.475E-02    0.950E-01
RMM:   4    -0.374185118720E+03    0.57864E-02   -0.14953E-03  7708   0.459E-02    0.337E-01
RMM:   5    -0.374184718794E+03    0.39993E-03   -0.71932E-04  7719   0.337E-02    0.203E-01
RMM:   6    -0.374184487328E+03    0.23147E-03   -0.35797E-04  7689   0.236E-02    0.868E-02
RMM:   7    -0.374184435489E+03    0.51839E-04   -0.87874E-05  7391   0.119E-02    0.385E-02
RMM:   8    -0.374184442108E+03   -0.66186E-05   -0.25698E-05  4562   0.676E-03
   7 F= -.37418444E+03 E0= -.37417099E+03  d E =-.403644E-01
 Finite differences progress:
  Degree of freedom:   3/  3
  Displacement:        2/  2
  Total:               6/  6
 Finite differences POTIM=  1.500000000000000E-002
