<?xml version="1.0" encoding="ISO-8859-1"?>
<modeling>
 <generator>
  <i name="program" type="string">vasp </i>
  <i name="version" type="string">5.4.4.18Apr17-6-g9f103f2a35  </i>
  <i name="subversion" type="string">(build May 23 2022 10:35:18) complex            parallel </i>
  <i name="platform" type="string">IFC18_impi </i>
  <i name="date" type="string">2023 06 20 </i>
  <i name="time" type="string">15:33:29 </i>
 </generator>
 <incar>
  <i type="string" name="SYSTEM"> Pt</i>
  <i type="int" name="ISTART">     0</i>
  <i type="string" name="PREC">med   normal | accurate</i>
  <i type="string" name="ALGO">  Fast    Normal, Fast, Very_Fast</i>
  <i type="int" name="ICHARG">     2</i>
  <i type="int" name="INIWAV">     1</i>
  <i type="int" name="NELM">   100</i>
  <i type="int" name="IBRION">     5</i>
  <i type="int" name="NFREE">     2</i>
  <i name="EDIFF">      0.00001000</i>
  <i type="int" name="NSW">     1</i>
  <i type="int" name="ISIF">     1</i>
  <i type="int" name="ISYM">     0</i>
  <i name="ENCUT">    400.00000000</i>
  <i name="POTIM">      0.01500000</i>
  <i type="string" name="LREAL">  Auto     real-space projection (.FALSE</i>
  <i type="int" name="ISMEAR">     1</i>
  <i name="SIGMA">      0.10000000</i>
  <i type="int" name="NWRITE">     2</i>
  <i type="logical" name="LWAVE"> F  </i>
  <i type="logical" name="LCHARG"> F  </i>
  <i type="logical" name="LAECHG"> F  </i>
  <v type="int" name="KPOINT_BSE">    -1     0     0     0</v>
  <i type="int" name="NELM">   100</i>
 </incar>
 <structure name="primitive_cell" >
  <crystal>
   <varray name="basis" >
    <v>      11.21440000       0.00000000       0.00000000 </v>
    <v>       5.60720000       9.71195529       0.00000000 </v>
    <v>       0.00000000       0.00000000      31.44560000 </v>
   </varray>
   <i name="volume">   3424.85826052 </i>
   <varray name="rec_basis" >
    <v>       0.08917107      -0.05148294       0.00000000 </v>
    <v>       0.00000000       0.10296588       0.00000000 </v>
    <v>       0.00000000       0.00000000       0.03180095 </v>
   </varray>
  </crystal>
  <varray name="positions" >
   <v>       0.08333000       0.33333000       0.39081000 </v>
   <v>       0.16667000       0.16667000       0.46360000 </v>
   <v>      -0.08333000       0.41667000       0.46360000 </v>
   <v>       0.16667000       0.41667000       0.46360000 </v>
   <v>       0.33333000       0.08333000       0.39081000 </v>
   <v>      -0.16667000      -0.41667000       0.39081000 </v>
   <v>       0.33333000       0.33333000       0.39081000 </v>
   <v>      -0.16667000       0.33333000       0.39081000 </v>
   <v>       0.08333000       0.08333000       0.39081000 </v>
   <v>       0.08333000      -0.41667000       0.39081000 </v>
   <v>      -0.08333000       0.16667000       0.46360000 </v>
   <v>       0.41667000       0.16667000       0.46360000 </v>
   <v>      -0.08333000      -0.33333000       0.46360000 </v>
   <v>       0.25031769       0.25009460      -0.46434722 </v>
   <v>      -0.00045700       0.25006111      -0.46435439 </v>
   <v>       0.00000057       0.49994544      -0.46426223 </v>
   <v>       0.16667000      -0.08333000       0.46360000 </v>
   <v>      -0.33333000       0.41667000       0.46360000 </v>
   <v>       0.41667000      -0.08333000       0.46360000 </v>
   <v>      -0.33333000      -0.33333000       0.46360000 </v>
   <v>       0.33333000      -0.16667000       0.39081000 </v>
   <v>      -0.41667000      -0.41667000       0.39081000 </v>
   <v>      -0.41667000       0.08333000       0.39081000 </v>
   <v>      -0.16667000       0.08333000       0.39081000 </v>
   <v>       0.33333000      -0.41667000       0.39081000 </v>
   <v>      -0.16667000      -0.16667000       0.39081000 </v>
   <v>       0.16667000      -0.33333000       0.46360000 </v>
   <v>       0.41667000       0.41667000       0.46360000 </v>
   <v>       0.24997144       0.00003304      -0.46428604 </v>
   <v>       0.24993120      -0.49992500      -0.46423246 </v>
   <v>      -0.25009828      -0.49990820      -0.46422315 </v>
   <v>       0.08333000      -0.16667000       0.39081000 </v>
   <v>      -0.41667000       0.33333000       0.39081000 </v>
   <v>      -0.41667000      -0.16667000       0.39081000 </v>
   <v>      -0.00047512       0.00043911      -0.46433586 </v>
   <v>      -0.49999456       0.00042157      -0.46432259 </v>
   <v>      -0.25010610      -0.24992073      -0.46426397 </v>
   <v>      -0.00003009      -0.24988025      -0.46425079 </v>
   <v>      -0.33333000       0.16667000       0.46360000 </v>
   <v>      -0.08333000      -0.08333000       0.46360000 </v>
   <v>      -0.33333000      -0.08333000       0.46360000 </v>
   <v>      -0.49928217       0.25090443      -0.46340676 </v>
   <v>      -0.25174591       0.25093738      -0.46339493 </v>
   <v>       0.08311689       0.33356088      -0.39105430 </v>
   <v>       0.41667000      -0.33333000       0.46360000 </v>
   <v>       0.25029847      -0.25033493      -0.46435549 </v>
   <v>       0.49998050      -0.25035510      -0.46436319 </v>
   <v>       0.33255427       0.33326029      -0.39109876 </v>
   <v>      -0.16595490       0.33320672      -0.39109786 </v>
   <v>       0.08338460       0.08345964      -0.39103056 </v>
   <v>       0.33309249       0.08339233      -0.39102694 </v>
   <v>       0.08310851      -0.41645097      -0.39106012 </v>
   <v>      -0.16671712      -0.41647051      -0.39105931 </v>
   <v>      -0.49923763       0.49832483      -0.46336013 </v>
   <v>      -0.25009041       0.00009917      -0.46423435 </v>
   <v>      -0.41719711       0.08299644      -0.39107748 </v>
   <v>       0.33313662      -0.16627813      -0.39105669 </v>
   <v>      -0.16596208       0.08291616      -0.39107514 </v>
   <v>       0.33247438      -0.41544587      -0.39109523 </v>
   <v>      -0.16686800      -0.16645975      -0.39105497 </v>
   <v>      -0.41711149      -0.41551112      -0.39109109 </v>
   <v>       0.08308521      -0.16645121      -0.39104042 </v>
   <v>      -0.41665824      -0.16654341      -0.39102856 </v>
   <v>      -0.41684213       0.33360763      -0.38652407 </v>
   <v>      -0.41603250       0.33259602      -0.33700579 </v>
  </varray>
 </structure>
 <varray name="primitive_index" >
  <v type="int" >        1 </v>
  <v type="int" >        7 </v>
  <v type="int" >       38 </v>
  <v type="int" >        8 </v>
  <v type="int" >        4 </v>
  <v type="int" >       52 </v>
  <v type="int" >        3 </v>
  <v type="int" >       35 </v>
  <v type="int" >        2 </v>
  <v type="int" >       18 </v>
  <v type="int" >       37 </v>
  <v type="int" >        5 </v>
  <v type="int" >       53 </v>
  <v type="int" >       10 </v>
  <v type="int" >       44 </v>
  <v type="int" >       59 </v>
  <v type="int" >       24 </v>
  <v type="int" >       40 </v>
  <v type="int" >       22 </v>
  <v type="int" >       55 </v>
  <v type="int" >       19 </v>
  <v type="int" >       50 </v>
  <v type="int" >       34 </v>
  <v type="int" >       36 </v>
  <v type="int" >       20 </v>
  <v type="int" >       51 </v>
  <v type="int" >       23 </v>
  <v type="int" >        6 </v>
  <v type="int" >        9 </v>
  <v type="int" >       25 </v>
  <v type="int" >       57 </v>
  <v type="int" >       17 </v>
  <v type="int" >       33 </v>
  <v type="int" >       49 </v>
  <v type="int" >       43 </v>
  <v type="int" >       11 </v>
  <v type="int" >       58 </v>
  <v type="int" >       60 </v>
  <v type="int" >       39 </v>
  <v type="int" >       54 </v>
  <v type="int" >       56 </v>
  <v type="int" >       12 </v>
  <v type="int" >       42 </v>
  <v type="int" >       13 </v>
  <v type="int" >       21 </v>
  <v type="int" >       26 </v>
  <v type="int" >       28 </v>
  <v type="int" >       15 </v>
  <v type="int" >       47 </v>
  <v type="int" >       14 </v>
  <v type="int" >       16 </v>
  <v type="int" >       30 </v>
  <v type="int" >       64 </v>
  <v type="int" >       27 </v>
  <v type="int" >       41 </v>
  <v type="int" >       46 </v>
  <v type="int" >       31 </v>
  <v type="int" >       48 </v>
  <v type="int" >       32 </v>
  <v type="int" >       63 </v>
  <v type="int" >       62 </v>
  <v type="int" >       29 </v>
  <v type="int" >       61 </v>
  <v type="int" >       45 </v>
  <v type="int" >       65 </v>
 </varray>
 <kpoints>
  <generation param="Gamma">
   <v type="int" name="divisions">       4        4        1 </v>
   <v name="usershift">      0.00000000       0.00000000       0.00000000 </v>
   <v name="genvec1">      0.25000000      -0.00000000       0.00000000 </v>
   <v name="genvec2">      0.00000000       0.25000000       0.00000000 </v>
   <v name="genvec3">      0.00000000       0.00000000       1.00000000 </v>
   <v name="shift">      0.00000000       0.00000000       0.00000000 </v>
  </generation>
  <varray name="kpointlist" >
   <v>       0.00000000       0.00000000       0.00000000 </v>
   <v>       0.25000000       0.00000000       0.00000000 </v>
   <v>       0.50000000       0.00000000       0.00000000 </v>
   <v>       0.00000000       0.25000000       0.00000000 </v>
   <v>       0.25000000       0.25000000       0.00000000 </v>
   <v>       0.50000000       0.25000000       0.00000000 </v>
   <v>      -0.25000000       0.25000000       0.00000000 </v>
   <v>       0.00000000       0.50000000       0.00000000 </v>
   <v>       0.25000000       0.50000000       0.00000000 </v>
   <v>       0.50000000       0.50000000       0.00000000 </v>
  </varray>
  <varray name="weights" >
   <v>       0.06250000 </v>
   <v>       0.12500000 </v>
   <v>       0.06250000 </v>
   <v>       0.12500000 </v>
   <v>       0.12500000 </v>
   <v>       0.12500000 </v>
   <v>       0.12500000 </v>
   <v>       0.06250000 </v>
   <v>       0.12500000 </v>
   <v>       0.06250000 </v>
  </varray>
 </kpoints>
 <parameters>
  <separator name="general" >
   <i type="string" name="SYSTEM">Pt</i>
   <i type="logical" name="LCOMPAT"> F  </i>
  </separator>
  <separator name="electronic" >
   <i type="string" name="PREC">med</i>
   <i name="ENMAX">    400.00000000</i>
   <i name="ENAUG">    400.00000000</i>
   <i name="EDIFF">      0.00001000</i>
   <i type="int" name="IALGO">    68</i>
   <i type="int" name="IWAVPR">    11</i>
   <i type="int" name="NBANDS">   384</i>
   <i name="NELECT">    641.00000000</i>
   <i type="int" name="TURBO">     0</i>
   <i type="int" name="IRESTART">     0</i>
   <i type="int" name="NREBOOT">     0</i>
   <i type="int" name="NMIN">     0</i>
   <i name="EREF">      0.00000000</i>
   <separator name="electronic smearing" >
    <i type="int" name="ISMEAR">     1</i>
    <i name="SIGMA">      0.10000000</i>
    <i name="KSPACING">      0.50000000</i>
    <i type="logical" name="KGAMMA"> T  </i>
   </separator>
   <separator name="electronic projectors" >
    <i type="logical" name="LREAL"> T  </i>
    <v name="ROPT">     -0.00200000     -0.00200000</v>
    <i type="int" name="LMAXPAW">  -100</i>
    <i type="int" name="LMAXMIX">     2</i>
    <i type="logical" name="NLSPLINE"> F  </i>
   </separator>
   <separator name="electronic startup" >
    <i type="int" name="ISTART">     0</i>
    <i type="int" name="ICHARG">     2</i>
    <i type="int" name="INIWAV">     1</i>
   </separator>
   <separator name="electronic spin" >
    <i type="int" name="ISPIN">     1</i>
    <i type="logical" name="LNONCOLLINEAR"> F  </i>
    <v name="MAGMOM">      1.00000000      1.00000000      1.00000000      1.00000000      1.00000000      1.00000000      1.00000000      1.00000000      1.00000000      1.00000000      1.00000000      1.00000000      1.00000000      1.00000000      1.00000000      1.00000000      1.00000000      1.00000000      1.00000000      1.00000000
      1.00000000      1.00000000      1.00000000      1.00000000      1.00000000      1.00000000      1.00000000      1.00000000      1.00000000      1.00000000      1.00000000      1.00000000      1.00000000      1.00000000      1.00000000      1.00000000      1.00000000      1.00000000      1.00000000      1.00000000
      1.00000000      1.00000000      1.00000000      1.00000000      1.00000000      1.00000000      1.00000000      1.00000000      1.00000000      1.00000000      1.00000000      1.00000000      1.00000000      1.00000000      1.00000000      1.00000000      1.00000000      1.00000000      1.00000000      1.00000000
      1.00000000      1.00000000      1.00000000      1.00000000      1.00000000</v>
    <i name="NUPDOWN">     -1.00000000</i>
    <i type="logical" name="LSORBIT"> F  </i>
    <v name="SAXIS">      0.00000000      0.00000000      1.00000000</v>
    <i type="logical" name="LSPIRAL"> F  </i>
    <v name="QSPIRAL">      0.00000000      0.00000000      0.00000000</v>
    <i type="logical" name="LZEROZ"> F  </i>
   </separator>
   <separator name="electronic exchange-correlation" >
    <i type="logical" name="LASPH"> F  </i>
    <i type="logical" name="LMETAGGA"> F  </i>
   </separator>
   <separator name="electronic convergence" >
    <i type="int" name="NELM">   100</i>
    <i type="int" name="NELMDL">    -5</i>
    <i type="int" name="NELMIN">     2</i>
    <i name="ENINI">    400.00000000</i>
    <separator name="electronic convergence detail" >
     <i type="logical" name="LDIAG"> T  </i>
     <i type="logical" name="LSUBROT"> F  </i>
     <i name="WEIMIN">      0.00100000</i>
     <i name="EBREAK">      0.00000001</i>
     <i name="DEPER">      0.30000000</i>
     <i type="int" name="NRMM">     4</i>
     <i name="TIME">      0.40000000</i>
    </separator>
   </separator>
   <separator name="electronic mixer" >
    <i name="AMIX">      0.40000000</i>
    <i name="BMIX">      1.00000000</i>
    <i name="AMIN">      0.10000000</i>
    <i name="AMIX_MAG">      1.60000000</i>
    <i name="BMIX_MAG">      1.00000000</i>
    <separator name="electronic mixer details" >
     <i type="int" name="IMIX">     4</i>
     <i type="logical" name="MIXFIRST"> F  </i>
     <i type="int" name="MAXMIX">   -45</i>
     <i name="WC">    100.00000000</i>
     <i type="int" name="INIMIX">     1</i>
     <i type="int" name="MIXPRE">     1</i>
     <i type="int" name="MREMOVE">     5</i>
    </separator>
   </separator>
   <separator name="electronic dipolcorrection" >
    <i type="logical" name="LDIPOL"> F  </i>
    <i type="logical" name="LMONO"> F  </i>
    <i type="int" name="IDIPOL">     0</i>
    <i name="EPSILON">      1.00000000</i>
    <v name="DIPOL">   -100.00000000   -100.00000000   -100.00000000</v>
    <i name="EFIELD">      0.00000000</i>
   </separator>
  </separator>
  <separator name="grids" >
   <i type="int" name="NGX">    56</i>
   <i type="int" name="NGY">    56</i>
   <i type="int" name="NGZ">   160</i>
   <i type="int" name="NGXF">    80</i>
   <i type="int" name="NGYF">    80</i>
   <i type="int" name="NGZF">   210</i>
   <i type="logical" name="ADDGRID"> F  </i>
  </separator>
  <separator name="ionic" >
   <i type="int" name="NSW">   817</i>
   <i type="int" name="IBRION">     5</i>
   <i type="int" name="MDALGO">     0</i>
   <i type="int" name="ISIF">     1</i>
   <i name="PSTRESS">      0.00000000</i>
   <i name="EDIFFG">      0.00010000</i>
   <i type="int" name="NFREE">     2</i>
   <i name="POTIM">      0.01500000</i>
   <i name="SMASS">     -3.00000000</i>
   <i name="SCALEE">      1.00000000</i>
  </separator>
  <separator name="ionic md" >
   <i name="TEBEG">      0.00010000</i>
   <i name="TEEND">      0.00010000</i>
   <i type="int" name="NBLOCK">     1</i>
   <i type="int" name="KBLOCK">   817</i>
   <i type="int" name="NPACO">   256</i>
   <i name="APACO">     16.00000000</i>
  </separator>
  <separator name="symmetry" >
   <i type="int" name="ISYM">     0</i>
   <i name="SYMPREC">      0.00001000</i>
  </separator>
  <separator name="dos" >
   <i type="int" name="LORBIT">     0</i>
   <v name="RWIGS">     -1.00000000     -1.00000000</v>
   <i type="int" name="NEDOS">   301</i>
   <i name="EMIN">     10.00000000</i>
   <i name="EMAX">    -10.00000000</i>
   <i name="EFERMI">      0.00000000</i>
  </separator>
  <separator name="writing" >
   <i type="int" name="NWRITE">     2</i>
   <i type="logical" name="LWAVE"> F  </i>
   <i type="logical" name="LDOWNSAMPLE"> F  </i>
   <i type="logical" name="LCHARG"> F  </i>
   <i type="logical" name="LPARD"> F  </i>
   <i type="logical" name="LVTOT"> F  </i>
   <i type="logical" name="LVHAR"> F  </i>
   <i type="logical" name="LELF"> F  </i>
   <i type="logical" name="LOPTICS"> F  </i>
   <v name="STM">      0.00000000      0.00000000      0.00000000      0.00000000      0.00000000      0.00000000      0.00000000</v>
  </separator>
  <separator name="performance" >
   <i type="int" name="NPAR">     4</i>
   <i type="int" name="NSIM">     4</i>
   <i type="int" name="NBLK">    -1</i>
   <i type="logical" name="LPLANE"> T  </i>
   <i type="logical" name="LSCALAPACK"> T  </i>
   <i type="logical" name="LSCAAWARE"> F  </i>
   <i type="logical" name="LSCALU"> F  </i>
   <i type="logical" name="LASYNC"> F  </i>
   <i type="logical" name="LORBITALREAL"> F  </i>
  </separator>
  <separator name="miscellaneous" >
   <i type="int" name="IDIOT">     3</i>
   <i type="int" name="ISPECIAL">     0</i>
   <i type="logical" name="LMUSIC"> F  </i>
   <v name="POMASS">    195.08000000      1.00000000</v>
   <v name="DARWINR">      0.00000000      0.00000000</v>
   <v name="DARWINV">      1.00000000      1.00000000</v>
   <i type="logical" name="LCORR"> T  </i>
  </separator>
  <i type="logical" name="GGA_COMPAT"> T  </i>
  <i type="logical" name="LBERRY"> F  </i>
  <i type="int" name="ICORELEVEL">     0</i>
  <i type="logical" name="LDAU"> F  </i>
  <i type="int" name="I_CONSTRAINED_M">     0</i>
  <separator name="electronic exchange-correlation" >
   <i type="string" name="GGA">--</i>
   <i type="int" name="VOSKOWN">     0</i>
   <i type="logical" name="LHFCALC"> F  </i>
   <i type="string" name="PRECFOCK"></i>
   <i type="logical" name="LSYMGRAD"> F  </i>
   <i type="logical" name="LHFONE"> F  </i>
   <i type="logical" name="LRHFCALC"> F  </i>
   <i type="logical" name="LTHOMAS"> F  </i>
   <i type="logical" name="LMODELHF"> F  </i>
   <i name="ENCUT4O">     -1.00000000</i>
   <i type="int" name="EXXOEP">     0</i>
   <i type="int" name="FOURORBIT">     0</i>
   <i name="AEXX">      0.00000000</i>
   <i name="HFALPHA">      0.00000000</i>
   <i name="MCALPHA">      0.00000000</i>
   <i name="ALDAX">      1.00000000</i>
   <i name="AGGAX">      1.00000000</i>
   <i name="ALDAC">      1.00000000</i>
   <i name="AGGAC">      1.00000000</i>
   <i type="int" name="NKREDX">     1</i>
   <i type="int" name="NKREDY">     1</i>
   <i type="int" name="NKREDZ">     1</i>
   <i type="logical" name="SHIFTRED"> F  </i>
   <i type="logical" name="ODDONLY"> F  </i>
   <i type="logical" name="EVENONLY"> F  </i>
   <i type="int" name="LMAXFOCK">     0</i>
   <i type="int" name="NMAXFOCKAE">     0</i>
   <i type="logical" name="LFOCKAEDFT"> F  </i>
   <i name="HFSCREEN">      0.00000000</i>
   <i name="HFSCREENC">      0.00000000</i>
   <i type="int" name="NBANDSGWLOW">     0</i>
  </separator>
  <separator name="vdW DFT" >
   <i type="logical" name="LUSE_VDW"> F  </i>
   <i name="Zab_VDW">     -0.84910000</i>
   <i name="PARAM1">      0.12340000</i>
   <i name="PARAM2">      1.00000000</i>
   <i name="PARAM3">      0.00000000</i>
  </separator>
  <separator name="model GW" >
   <i type="int" name="MODEL_GW">     0</i>
   <i name="MODEL_EPS0">     31.61407625</i>
   <i name="MODEL_ALPHA">      1.00000000</i>
  </separator>
  <separator name="linear response parameters" >
   <i type="logical" name="LEPSILON"> F  </i>
   <i type="logical" name="LRPA"> F  </i>
   <i type="logical" name="LNABLA"> F  </i>
   <i type="logical" name="LVEL"> F  </i>
   <i type="int" name="KINTER">     0</i>
   <i name="CSHIFT">      0.10000000</i>
   <i name="OMEGAMAX">     -1.00000000</i>
   <i name="DEG_THRESHOLD">      0.00200000</i>
   <i name="RTIME">     -0.10000000</i>
   <i name="WPLASMAI">      0.00000000</i>
   <v name="DFIELD">      0.00000000      0.00000000      0.00000000</v>
   <v name="WPLASMA">      0.00000000      0.00000000      0.00000000      0.00000000      0.00000000      0.00000000      0.00000000      0.00000000      0.00000000</v>
  </separator>
  <separator name="orbital magnetization" >
   <i type="logical" name="NUCIND"> F  </i>
   <v name="MAGPOS">      0.00000000      0.00000000      0.00000000</v>
   <i type="logical" name="LNICSALL"> T  </i>
   <i type="logical" name="ORBITALMAG"> F  </i>
   <i type="logical" name="LMAGBLOCH"> F  </i>
   <i type="logical" name="LCHIMAG"> F  </i>
   <i type="logical" name="LGAUGE"> T  </i>
   <i type="int" name="MAGATOM">     0</i>
   <v name="MAGDIPOL">      0.00000000      0.00000000      0.00000000</v>
   <v name="AVECCONST">      0.00000000      0.00000000      0.00000000</v>
  </separator>
  <separator name="response functions" >
   <i type="logical" name="LADDER"> F  </i>
   <i type="logical" name="LRPAFORCE"> F  </i>
   <i type="logical" name="LFXC"> F  </i>
   <i type="logical" name="LHARTREE"> T  </i>
   <i type="int" name="IBSE">     0</i>
   <v type="int" name="KPOINT">    -1     0     0     0</v>
   <i type="logical" name="LTCTE"> F  </i>
   <i type="logical" name="LTETE"> F  </i>
   <i type="logical" name="LTRIPLET"> F  </i>
   <i type="logical" name="LFXCEPS"> F  </i>
   <i type="logical" name="LFXHEG"> F  </i>
   <i type="int" name="NATURALO">     2</i>
   <i type="logical" name="L2ORDER"> F  </i>
   <i type="logical" name="LMP2LT"> F  </i>
   <i type="logical" name="LUSEW"> F  </i>
   <i name="ENCUTGW">     -2.00000000</i>
   <i name="ENCUTGWSOFT">     -2.00000000</i>
   <i name="ENCUTLF">     -1.00000000</i>
   <i type="int" name="LMAXMP2">    -1</i>
   <i name="SCISSOR">      0.00000000</i>
   <i type="int" name="NOMEGA">     0</i>
   <i type="int" name="NOMEGAR">     0</i>
   <i type="int" name="NBANDSGW">    -1</i>
   <i type="int" name="NBANDSO">    -1</i>
   <i type="int" name="NBANDSV">    -1</i>
   <i type="int" name="NELM">   100</i>
   <i type="int" name="NELMHF">     1</i>
   <i type="int" name="DIM">     3</i>
   <i type="int" name="ANTIRES">     0</i>
   <i name="OMEGAMAX">    -30.00000000</i>
   <i name="OMEGAMIN">    -30.00000000</i>
   <i name="OMEGATL">   -200.00000000</i>
   <i type="int" name="OMEGAGRID">   140</i>
   <i name="CSHIFT">     -0.10000000</i>
   <i type="logical" name="SELFENERGY"> F  </i>
   <i type="logical" name="LSPECTRAL"> F  </i>
   <i type="logical" name="LSPECTRALGW"> F  </i>
   <i type="logical" name="LSINGLES"> F  </i>
   <i type="logical" name="LFERMIGW"> F  </i>
   <i type="logical" name="ODDONLYGW"> F  </i>
   <i type="logical" name="EVENONLYGW"> F  </i>
   <i type="int" name="NKREDLFX">     1</i>
   <i type="int" name="NKREDLFY">     1</i>
   <i type="int" name="NKREDLFZ">     1</i>
   <i type="int" name="MAXMEM">  2800</i>
   <i type="int" name="TELESCOPE">     0</i>
   <i type="int" name="TAUPAR">     1</i>
   <i type="int" name="OMEGAPAR">    -1</i>
   <i name="LAMBDA">      1.00000000</i>
  </separator>
  <separator name="External order field" >
   <i name="OFIELD_KAPPA">      0.00000000</i>
   <v name="OFIELD_K">      0.00000000      0.00000000      0.00000000</v>
   <i name="OFIELD_Q6_NEAR">      0.00000000</i>
   <i name="OFIELD_Q6_FAR">      0.00000000</i>
   <i name="OFIELD_A">      0.00000000</i>
  </separator>
 </parameters>
 <atominfo>
  <atoms>      65 </atoms>
  <types>       2 </types>
  <array name="atoms" >
   <dimension dim="1">ion</dimension>
   <field type="string">element</field>
   <field type="int">atomtype</field>
   <set>
    <rc><c>Pt</c><c>   1</c></rc>
    <rc><c>Pt</c><c>   1</c></rc>
    <rc><c>Pt</c><c>   1</c></rc>
    <rc><c>Pt</c><c>   1</c></rc>
    <rc><c>Pt</c><c>   1</c></rc>
    <rc><c>Pt</c><c>   1</c></rc>
    <rc><c>Pt</c><c>   1</c></rc>
    <rc><c>Pt</c><c>   1</c></rc>
    <rc><c>Pt</c><c>   1</c></rc>
    <rc><c>Pt</c><c>   1</c></rc>
    <rc><c>Pt</c><c>   1</c></rc>
    <rc><c>Pt</c><c>   1</c></rc>
    <rc><c>Pt</c><c>   1</c></rc>
    <rc><c>Pt</c><c>   1</c></rc>
    <rc><c>Pt</c><c>   1</c></rc>
    <rc><c>Pt</c><c>   1</c></rc>
    <rc><c>Pt</c><c>   1</c></rc>
    <rc><c>Pt</c><c>   1</c></rc>
    <rc><c>Pt</c><c>   1</c></rc>
    <rc><c>Pt</c><c>   1</c></rc>
    <rc><c>Pt</c><c>   1</c></rc>
    <rc><c>Pt</c><c>   1</c></rc>
    <rc><c>Pt</c><c>   1</c></rc>
    <rc><c>Pt</c><c>   1</c></rc>
    <rc><c>Pt</c><c>   1</c></rc>
    <rc><c>Pt</c><c>   1</c></rc>
    <rc><c>Pt</c><c>   1</c></rc>
    <rc><c>Pt</c><c>   1</c></rc>
    <rc><c>Pt</c><c>   1</c></rc>
    <rc><c>Pt</c><c>   1</c></rc>
    <rc><c>Pt</c><c>   1</c></rc>
    <rc><c>Pt</c><c>   1</c></rc>
    <rc><c>Pt</c><c>   1</c></rc>
    <rc><c>Pt</c><c>   1</c></rc>
    <rc><c>Pt</c><c>   1</c></rc>
    <rc><c>Pt</c><c>   1</c></rc>
    <rc><c>Pt</c><c>   1</c></rc>
    <rc><c>Pt</c><c>   1</c></rc>
    <rc><c>Pt</c><c>   1</c></rc>
    <rc><c>Pt</c><c>   1</c></rc>
    <rc><c>Pt</c><c>   1</c></rc>
    <rc><c>Pt</c><c>   1</c></rc>
    <rc><c>Pt</c><c>   1</c></rc>
    <rc><c>Pt</c><c>   1</c></rc>
    <rc><c>Pt</c><c>   1</c></rc>
    <rc><c>Pt</c><c>   1</c></rc>
    <rc><c>Pt</c><c>   1</c></rc>
    <rc><c>Pt</c><c>   1</c></rc>
    <rc><c>Pt</c><c>   1</c></rc>
    <rc><c>Pt</c><c>   1</c></rc>
    <rc><c>Pt</c><c>   1</c></rc>
    <rc><c>Pt</c><c>   1</c></rc>
    <rc><c>Pt</c><c>   1</c></rc>
    <rc><c>Pt</c><c>   1</c></rc>
    <rc><c>Pt</c><c>   1</c></rc>
    <rc><c>Pt</c><c>   1</c></rc>
    <rc><c>Pt</c><c>   1</c></rc>
    <rc><c>Pt</c><c>   1</c></rc>
    <rc><c>Pt</c><c>   1</c></rc>
    <rc><c>Pt</c><c>   1</c></rc>
    <rc><c>Pt</c><c>   1</c></rc>
    <rc><c>Pt</c><c>   1</c></rc>
    <rc><c>Pt</c><c>   1</c></rc>
    <rc><c>Pt</c><c>   1</c></rc>
    <rc><c>H </c><c>   2</c></rc>
   </set>
  </array>
  <array name="atomtypes" >
   <dimension dim="1">type</dimension>
   <field type="int">atomspertype</field>
   <field type="string">element</field>
   <field>mass</field>
   <field>valence</field>
   <field type="string">pseudopotential</field>
   <set>
    <rc><c>  64</c><c>Pt</c><c>    195.08000000</c><c>     10.00000000</c><c>  PAW_PBE Pt 04Feb2005                  </c></rc>
    <rc><c>   1</c><c>H </c><c>      1.00000000</c><c>      1.00000000</c><c>  PAW_PBE H 15Jun2001                   </c></rc>
   </set>
  </array>
 </atominfo>
 <structure name="initialpos" >
  <crystal>
   <varray name="basis" >
    <v>      11.21440000       0.00000000       0.00000000 </v>
    <v>       5.60720000       9.71195529       0.00000000 </v>
    <v>       0.00000000       0.00000000      31.44560000 </v>
   </varray>
   <i name="volume">   3424.85826052 </i>
   <varray name="rec_basis" >
    <v>       0.08917107      -0.05148294       0.00000000 </v>
    <v>       0.00000000       0.10296588       0.00000000 </v>
    <v>       0.00000000       0.00000000       0.03180095 </v>
   </varray>
  </crystal>
  <varray name="positions" >
   <v>       0.08333000       0.33333000       0.39081000 </v>
   <v>       0.08333000       0.08333000       0.39081000 </v>
   <v>       0.33333000       0.33333000       0.39081000 </v>
   <v>       0.33333000       0.08333000       0.39081000 </v>
   <v>       0.41667000       0.16667000       0.46360000 </v>
   <v>       0.41667000       0.41667000       0.46360000 </v>
   <v>       0.16667000       0.16667000       0.46360000 </v>
   <v>       0.16667000       0.41667000       0.46360000 </v>
   <v>       0.24997144       0.00003304       0.53571396 </v>
   <v>       0.25031769       0.25009460       0.53565278 </v>
   <v>       0.50000544       0.00042157       0.53567741 </v>
   <v>       0.50071783       0.25090443       0.53659324 </v>
   <v>       0.08311689       0.33356088       0.60894570 </v>
   <v>       0.08338460       0.08345964       0.60896944 </v>
   <v>       0.33255427       0.33326029       0.60890124 </v>
   <v>       0.33309249       0.08339233       0.60897306 </v>
   <v>       0.08333000       0.83333000       0.39081000 </v>
   <v>       0.08333000       0.58333000       0.39081000 </v>
   <v>       0.33333000       0.83333000       0.39081000 </v>
   <v>       0.33333000       0.58333000       0.39081000 </v>
   <v>       0.41667000       0.66667000       0.46360000 </v>
   <v>       0.41667000       0.91667000       0.46360000 </v>
   <v>       0.16667000       0.66667000       0.46360000 </v>
   <v>       0.16667000       0.91667000       0.46360000 </v>
   <v>       0.24993120       0.50007500       0.53576754 </v>
   <v>       0.25029847       0.74966507       0.53564451 </v>
   <v>       0.50076237       0.49832483       0.53663987 </v>
   <v>       0.49998050       0.74964490       0.53563681 </v>
   <v>       0.08308521       0.83354879       0.60895958 </v>
   <v>       0.08310851       0.58354903       0.60893988 </v>
   <v>       0.33313662       0.83372187       0.60894331 </v>
   <v>       0.33247438       0.58455413       0.60890477 </v>
   <v>       0.58333000       0.33333000       0.39081000 </v>
   <v>       0.58333000       0.08333000       0.39081000 </v>
   <v>       0.83333000       0.33333000       0.39081000 </v>
   <v>       0.83333000       0.08333000       0.39081000 </v>
   <v>       0.91667000       0.16667000       0.46360000 </v>
   <v>       0.91667000       0.41667000       0.46360000 </v>
   <v>       0.66667000       0.16667000       0.46360000 </v>
   <v>       0.66667000       0.41667000       0.46360000 </v>
   <v>       0.74990959       0.00009917       0.53576565 </v>
   <v>       0.74825409       0.25093738       0.53660507 </v>
   <v>       0.99952488       0.00043911       0.53566414 </v>
   <v>       0.99954300       0.25006111       0.53564561 </v>
   <v>       0.58315787       0.33360763       0.61347593 </v>
   <v>       0.58280289       0.08299644       0.60892252 </v>
   <v>       0.83404510       0.33320672       0.60890214 </v>
   <v>       0.83403792       0.08291616       0.60892486 </v>
   <v>       0.58333000       0.83333000       0.39081000 </v>
   <v>       0.58333000       0.58333000       0.39081000 </v>
   <v>       0.83333000       0.83333000       0.39081000 </v>
   <v>       0.83333000       0.58333000       0.39081000 </v>
   <v>       0.91667000       0.66667000       0.46360000 </v>
   <v>       0.91667000       0.91667000       0.46360000 </v>
   <v>       0.66667000       0.66667000       0.46360000 </v>
   <v>       0.66667000       0.91667000       0.46360000 </v>
   <v>       0.74990172       0.50009180       0.53577685 </v>
   <v>       0.74989390       0.75007927       0.53573603 </v>
   <v>       0.00000057       0.49994544       0.53573777 </v>
   <v>       0.99996991       0.75011975       0.53574921 </v>
   <v>       0.58334176       0.83345659       0.60897144 </v>
   <v>       0.58288851       0.58448888       0.60890891 </v>
   <v>       0.83313200       0.83354025       0.60894503 </v>
   <v>       0.83328288       0.58352949       0.60894069 </v>
   <v>       0.58396750       0.33259602       0.66299421 </v>
  </varray>
  <varray name="selective"  type="logical" >
   <v type="logical" >  F  F  F </v>
   <v type="logical" >  F  F  F </v>
   <v type="logical" >  F  F  F </v>
   <v type="logical" >  F  F  F </v>
   <v type="logical" >  F  F  F </v>
   <v type="logical" >  F  F  F </v>
   <v type="logical" >  F  F  F </v>
   <v type="logical" >  F  F  F </v>
   <v type="logical" >  F  F  F </v>
   <v type="logical" >  F  F  F </v>
   <v type="logical" >  F  F  F </v>
   <v type="logical" >  F  F  F </v>
   <v type="logical" >  F  F  F </v>
   <v type="logical" >  F  F  F </v>
   <v type="logical" >  F  F  F </v>
   <v type="logical" >  F  F  F </v>
   <v type="logical" >  F  F  F </v>
   <v type="logical" >  F  F  F </v>
   <v type="logical" >  F  F  F </v>
   <v type="logical" >  F  F  F </v>
   <v type="logical" >  F  F  F </v>
   <v type="logical" >  F  F  F </v>
   <v type="logical" >  F  F  F </v>
   <v type="logical" >  F  F  F </v>
   <v type="logical" >  F  F  F </v>
   <v type="logical" >  F  F  F </v>
   <v type="logical" >  F  F  F </v>
   <v type="logical" >  F  F  F </v>
   <v type="logical" >  F  F  F </v>
   <v type="logical" >  F  F  F </v>
   <v type="logical" >  F  F  F </v>
   <v type="logical" >  F  F  F </v>
   <v type="logical" >  F  F  F </v>
   <v type="logical" >  F  F  F </v>
   <v type="logical" >  F  F  F </v>
   <v type="logical" >  F  F  F </v>
   <v type="logical" >  F  F  F </v>
   <v type="logical" >  F  F  F </v>
   <v type="logical" >  F  F  F </v>
   <v type="logical" >  F  F  F </v>
   <v type="logical" >  F  F  F </v>
   <v type="logical" >  F  F  F </v>
   <v type="logical" >  F  F  F </v>
   <v type="logical" >  F  F  F </v>
   <v type="logical" >  F  F  F </v>
   <v type="logical" >  F  F  F </v>
   <v type="logical" >  F  F  F </v>
   <v type="logical" >  F  F  F </v>
   <v type="logical" >  F  F  F </v>
   <v type="logical" >  F  F  F </v>
   <v type="logical" >  F  F  F </v>
   <v type="logical" >  F  F  F </v>
   <v type="logical" >  F  F  F </v>
   <v type="logical" >  F  F  F </v>
   <v type="logical" >  F  F  F </v>
   <v type="logical" >  F  F  F </v>
   <v type="logical" >  F  F  F </v>
   <v type="logical" >  F  F  F </v>
   <v type="logical" >  F  F  F </v>
   <v type="logical" >  F  F  F </v>
   <v type="logical" >  F  F  F </v>
   <v type="logical" >  F  F  F </v>
   <v type="logical" >  F  F  F </v>
   <v type="logical" >  F  F  F </v>
   <v type="logical" >  T  T  T </v>
  </varray>
  <nose>
   <v>      -3.00000000       0.00000000       0.00010000       0.00010000 </v>
  </nose>
 </structure>
 <calculation>
  <scstep>
   <time name="dav">   10.84   10.87</time>
   <time name="total">   10.86   10.90</time>
   <energy>
    <i name="alphaZ">   1139.09295860 </i>
    <i name="ewald"> 407097.26515967 </i>
    <i name="hartreedc">-455154.47701306 </i>
    <i name="XCdc">    217.94133510 </i>
    <i name="pawpsdc">  44554.04029484 </i>
    <i name="pawaedc"> -42743.92178403 </i>
    <i name="eentropy">     -0.00292727 </i>
    <i name="bandstr">   2410.86719566 </i>
    <i name="atom">  46675.64354841 </i>
    <i name="e_fr_energy">   4196.44876792 </i>
    <i name="e_wo_entrp">   4196.45169519 </i>
    <i name="e_0_energy">   4196.44974368 </i>
   </energy>
  </scstep>
  <scstep>
   <time name="dav">   12.89   12.93</time>
   <time name="total">   12.90   12.93</time>
   <energy>
    <i name="e_fr_energy">    -15.63229347 </i>
    <i name="e_wo_entrp">    -15.61889213 </i>
    <i name="e_0_energy">    -15.62782636 </i>
   </energy>
  </scstep>
  <scstep>
   <time name="dav">   12.10   12.13</time>
   <time name="total">   12.10   12.14</time>
   <energy>
    <i name="e_fr_energy">   -379.95544940 </i>
    <i name="e_wo_entrp">   -379.91033986 </i>
    <i name="e_0_energy">   -379.94041289 </i>
   </energy>
  </scstep>
  <scstep>
   <time name="dav">   13.72   13.76</time>
   <time name="total">   13.73   13.76</time>
   <energy>
    <i name="e_fr_energy">   -398.75741052 </i>
    <i name="e_wo_entrp">   -398.67464302 </i>
    <i name="e_0_energy">   -398.72982135 </i>
   </energy>
  </scstep>
  <scstep>
   <time name="dav">   12.77   12.81</time>
   <time name="total">   13.06   13.10</time>
   <energy>
    <i name="e_fr_energy">   -399.31574770 </i>
    <i name="e_wo_entrp">   -399.23084291 </i>
    <i name="e_0_energy">   -399.28744610 </i>
   </energy>
  </scstep>
  <scstep>
   <time name="diag">    1.54    1.55</time>
   <time name="diis">    4.82    4.84</time>
   <time name="orth">    0.49    0.49</time>
   <time name="total">    7.16    7.18</time>
   <energy>
    <i name="e_fr_energy">   -386.75435637 </i>
    <i name="e_wo_entrp">   -386.72769072 </i>
    <i name="e_0_energy">   -386.74546782 </i>
   </energy>
  </scstep>
  <scstep>
   <time name="diag">    1.54    1.55</time>
   <time name="diis">    4.79    4.80</time>
   <time name="orth">    0.49    0.49</time>
   <time name="total">    7.13    7.15</time>
   <energy>
    <i name="e_fr_energy">   -474.90475894 </i>
    <i name="e_wo_entrp">   -474.87694685 </i>
    <i name="e_0_energy">   -474.89548824 </i>
   </energy>
  </scstep>
  <scstep>
   <time name="diag">    1.55    1.55</time>
   <time name="diis">    4.91    4.92</time>
   <time name="orth">    0.49    0.49</time>
   <time name="total">    7.25    7.27</time>
   <energy>
    <i name="e_fr_energy">   -389.70768476 </i>
    <i name="e_wo_entrp">   -389.74241839 </i>
    <i name="e_0_energy">   -389.71926263 </i>
   </energy>
  </scstep>
  <scstep>
   <time name="diag">    1.55    1.55</time>
   <time name="diis">    4.80    4.81</time>
   <time name="orth">    0.49    0.49</time>
   <time name="total">    7.14    7.16</time>
   <energy>
    <i name="e_fr_energy">   -418.22109236 </i>
    <i name="e_wo_entrp">   -418.19904397 </i>
    <i name="e_0_energy">   -418.21374289 </i>
   </energy>
  </scstep>
  <scstep>
   <time name="diag">    1.55    1.55</time>
   <time name="diis">    4.77    4.78</time>
   <time name="orth">    0.49    0.49</time>
   <time name="total">    7.11    7.13</time>
   <energy>
    <i name="e_fr_energy">   -400.03723061 </i>
    <i name="e_wo_entrp">   -400.02545248 </i>
    <i name="e_0_energy">   -400.03330456 </i>
   </energy>
  </scstep>
  <scstep>
   <time name="diag">    1.55    1.55</time>
   <time name="diis">    4.81    4.83</time>
   <time name="orth">    0.49    0.49</time>
   <time name="total">    7.16    7.17</time>
   <energy>
    <i name="e_fr_energy">   -379.98584838 </i>
    <i name="e_wo_entrp">   -380.00502600 </i>
    <i name="e_0_energy">   -379.99224092 </i>
   </energy>
  </scstep>
  <scstep>
   <time name="diag">    1.55    1.55</time>
   <time name="diis">    4.79    4.80</time>
   <time name="orth">    0.49    0.49</time>
   <time name="total">    7.13    7.15</time>
   <energy>
    <i name="e_fr_energy">   -377.07851124 </i>
    <i name="e_wo_entrp">   -377.06504672 </i>
    <i name="e_0_energy">   -377.07402307 </i>
   </energy>
  </scstep>
  <scstep>
   <time name="diag">    1.55    1.55</time>
   <time name="diis">    4.84    4.85</time>
   <time name="orth">    0.49    0.49</time>
   <time name="total">    7.18    7.21</time>
   <energy>
    <i name="e_fr_energy">   -375.64993174 </i>
    <i name="e_wo_entrp">   -375.61338741 </i>
    <i name="e_0_energy">   -375.63775030 </i>
   </energy>
  </scstep>
  <scstep>
   <time name="diag">    1.55    1.55</time>
   <time name="diis">    4.81    4.82</time>
   <time name="orth">    0.49    0.49</time>
   <time name="total">    7.15    7.17</time>
   <energy>
    <i name="e_fr_energy">   -374.56797034 </i>
    <i name="e_wo_entrp">   -374.52078340 </i>
    <i name="e_0_energy">   -374.55224136 </i>
   </energy>
  </scstep>
  <scstep>
   <time name="diag">    1.55    1.55</time>
   <time name="diis">    4.77    4.78</time>
   <time name="orth">    0.49    0.49</time>
   <time name="total">    7.11    7.13</time>
   <energy>
    <i name="e_fr_energy">   -374.52748181 </i>
    <i name="e_wo_entrp">   -374.46179180 </i>
    <i name="e_0_energy">   -374.50558514 </i>
   </energy>
  </scstep>
  <scstep>
   <time name="diag">    1.56    1.56</time>
   <time name="diis">    5.00    5.01</time>
   <time name="orth">    0.49    0.49</time>
   <time name="total">    7.35    7.37</time>
   <energy>
    <i name="e_fr_energy">   -374.38157032 </i>
    <i name="e_wo_entrp">   -374.31903595 </i>
    <i name="e_0_energy">   -374.36072553 </i>
   </energy>
  </scstep>
  <scstep>
   <time name="diag">    1.55    1.56</time>
   <time name="diis">    4.83    4.85</time>
   <time name="orth">    0.49    0.49</time>
   <time name="total">    7.18    7.19</time>
   <energy>
    <i name="e_fr_energy">   -374.27396368 </i>
    <i name="e_wo_entrp">   -374.21856426 </i>
    <i name="e_0_energy">   -374.25549720 </i>
   </energy>
  </scstep>
  <scstep>
   <time name="diag">    1.55    1.55</time>
   <time name="diis">    4.82    4.84</time>
   <time name="orth">    0.49    0.49</time>
   <time name="total">    7.17    7.19</time>
   <energy>
    <i name="e_fr_energy">   -374.22233322 </i>
    <i name="e_wo_entrp">   -374.18110180 </i>
    <i name="e_0_energy">   -374.20858941 </i>
   </energy>
  </scstep>
  <scstep>
   <time name="diag">    1.55    1.55</time>
   <time name="diis">    4.78    4.79</time>
   <time name="orth">    0.49    0.49</time>
   <time name="total">    7.12    7.14</time>
   <energy>
    <i name="e_fr_energy">   -374.19606247 </i>
    <i name="e_wo_entrp">   -374.15454755 </i>
    <i name="e_0_energy">   -374.18222416 </i>
   </energy>
  </scstep>
  <scstep>
   <time name="diag">    1.55    1.55</time>
   <time name="diis">    4.82    4.83</time>
   <time name="orth">    0.49    0.49</time>
   <time name="total">    7.16    7.18</time>
   <energy>
    <i name="e_fr_energy">   -374.19224253 </i>
    <i name="e_wo_entrp">   -374.14800881 </i>
    <i name="e_0_energy">   -374.17749796 </i>
   </energy>
  </scstep>
  <scstep>
   <time name="diag">    1.55    1.56</time>
   <time name="diis">    4.81    4.82</time>
   <time name="orth">    0.49    0.49</time>
   <time name="total">    7.16    7.18</time>
   <energy>
    <i name="e_fr_energy">   -374.19212119 </i>
    <i name="e_wo_entrp">   -374.14741625 </i>
    <i name="e_0_energy">   -374.17721954 </i>
   </energy>
  </scstep>
  <scstep>
   <time name="diag">    1.56    1.56</time>
   <time name="diis">    4.86    4.87</time>
   <time name="orth">    0.49    0.49</time>
   <time name="total">    7.21    7.23</time>
   <energy>
    <i name="e_fr_energy">   -374.19065295 </i>
    <i name="e_wo_entrp">   -374.14622977 </i>
    <i name="e_0_energy">   -374.17584522 </i>
   </energy>
  </scstep>
  <scstep>
   <time name="diag">    1.55    1.56</time>
   <time name="diis">    4.80    4.81</time>
   <time name="orth">    0.49    0.49</time>
   <time name="total">    7.15    7.16</time>
   <energy>
    <i name="e_fr_energy">   -374.18928968 </i>
    <i name="e_wo_entrp">   -374.14550854 </i>
    <i name="e_0_energy">   -374.17469597 </i>
   </energy>
  </scstep>
  <scstep>
   <time name="diag">    1.56    1.56</time>
   <time name="diis">    4.80    4.81</time>
   <time name="orth">    0.49    0.49</time>
   <time name="total">    7.15    7.17</time>
   <energy>
    <i name="e_fr_energy">   -374.18715927 </i>
    <i name="e_wo_entrp">   -374.14463502 </i>
    <i name="e_0_energy">   -374.17298452 </i>
   </energy>
  </scstep>
  <scstep>
   <time name="diag">    1.55    1.55</time>
   <time name="diis">    4.88    4.90</time>
   <time name="orth">    0.49    0.49</time>
   <time name="total">    7.24    7.26</time>
   <energy>
    <i name="e_fr_energy">   -374.18617480 </i>
    <i name="e_wo_entrp">   -374.14422666 </i>
    <i name="e_0_energy">   -374.17219209 </i>
   </energy>
  </scstep>
  <scstep>
   <time name="diag">    1.55    1.55</time>
   <time name="diis">    4.79    4.81</time>
   <time name="orth">    0.50    0.50</time>
   <time name="total">    7.15    7.17</time>
   <energy>
    <i name="e_fr_energy">   -374.18547949 </i>
    <i name="e_wo_entrp">   -374.14457214 </i>
    <i name="e_0_energy">   -374.17184370 </i>
   </energy>
  </scstep>
  <scstep>
   <time name="diag">    1.55    1.56</time>
   <time name="diis">    4.90    4.92</time>
   <time name="orth">    0.50    0.50</time>
   <time name="total">    7.26    7.29</time>
   <energy>
    <i name="e_fr_energy">   -374.18535310 </i>
    <i name="e_wo_entrp">   -374.14473537 </i>
    <i name="e_0_energy">   -374.17181386 </i>
   </energy>
  </scstep>
  <scstep>
   <time name="diag">    1.56    1.56</time>
   <time name="diis">    3.33    3.34</time>
   <time name="orth">    0.49    0.49</time>
   <time name="total">    5.41    5.42</time>
   <energy>
    <i name="alphaZ">   1139.09295860 </i>
    <i name="ewald"> 407097.26515967 </i>
    <i name="hartreedc">-454500.51307891 </i>
    <i name="XCdc">    195.34317308 </i>
    <i name="pawpsdc">  56248.50609542 </i>
    <i name="pawaedc"> -54611.94437962 </i>
    <i name="eentropy">     -0.04054493 </i>
    <i name="bandstr">  -2617.53829083 </i>
    <i name="atom">  46675.64354841 </i>
    <i name="e_fr_energy">   -374.18535910 </i>
    <i name="e_wo_entrp">   -374.14481417 </i>
    <i name="e_0_energy">   -374.17184412 </i>
   </energy>
  </scstep>
  <structure>
   <crystal>
    <varray name="basis" >
     <v>      11.21440000       0.00000000       0.00000000 </v>
     <v>       5.60720000       9.71195529       0.00000000 </v>
     <v>       0.00000000       0.00000000      31.44560000 </v>
    </varray>
    <i name="volume">   3424.85826052 </i>
    <varray name="rec_basis" >
     <v>       0.08917107      -0.05148294       0.00000000 </v>
     <v>       0.00000000       0.10296588       0.00000000 </v>
     <v>       0.00000000       0.00000000       0.03180095 </v>
    </varray>
   </crystal>
   <varray name="positions" >
    <v>       0.08333000       0.33333000       0.39081000 </v>
    <v>       0.08333000       0.08333000       0.39081000 </v>
    <v>       0.33333000       0.33333000       0.39081000 </v>
    <v>       0.33333000       0.08333000       0.39081000 </v>
    <v>       0.41667000       0.16667000       0.46360000 </v>
    <v>       0.41667000       0.41667000       0.46360000 </v>
    <v>       0.16667000       0.16667000       0.46360000 </v>
    <v>       0.16667000       0.41667000       0.46360000 </v>
    <v>       0.24997144       0.00003304       0.53571396 </v>
    <v>       0.25031769       0.25009460       0.53565278 </v>
    <v>       0.50000544       0.00042157       0.53567741 </v>
    <v>       0.50071783       0.25090443       0.53659324 </v>
    <v>       0.08311689       0.33356088       0.60894570 </v>
    <v>       0.08338460       0.08345964       0.60896944 </v>
    <v>       0.33255427       0.33326029       0.60890124 </v>
    <v>       0.33309249       0.08339233       0.60897306 </v>
    <v>       0.08333000       0.83333000       0.39081000 </v>
    <v>       0.08333000       0.58333000       0.39081000 </v>
    <v>       0.33333000       0.83333000       0.39081000 </v>
    <v>       0.33333000       0.58333000       0.39081000 </v>
    <v>       0.41667000       0.66667000       0.46360000 </v>
    <v>       0.41667000       0.91667000       0.46360000 </v>
    <v>       0.16667000       0.66667000       0.46360000 </v>
    <v>       0.16667000       0.91667000       0.46360000 </v>
    <v>       0.24993120       0.50007500       0.53576754 </v>
    <v>       0.25029847       0.74966507       0.53564451 </v>
    <v>       0.50076237       0.49832483       0.53663987 </v>
    <v>       0.49998050       0.74964490       0.53563681 </v>
    <v>       0.08308521       0.83354879       0.60895958 </v>
    <v>       0.08310851       0.58354903       0.60893988 </v>
    <v>       0.33313662       0.83372187       0.60894331 </v>
    <v>       0.33247438       0.58455413       0.60890477 </v>
    <v>       0.58333000       0.33333000       0.39081000 </v>
    <v>       0.58333000       0.08333000       0.39081000 </v>
    <v>       0.83333000       0.33333000       0.39081000 </v>
    <v>       0.83333000       0.08333000       0.39081000 </v>
    <v>       0.91667000       0.16667000       0.46360000 </v>
    <v>       0.91667000       0.41667000       0.46360000 </v>
    <v>       0.66667000       0.16667000       0.46360000 </v>
    <v>       0.66667000       0.41667000       0.46360000 </v>
    <v>       0.74990959       0.00009917       0.53576565 </v>
    <v>       0.74825409       0.25093738       0.53660507 </v>
    <v>       0.99952488       0.00043911       0.53566414 </v>
    <v>       0.99954300       0.25006111       0.53564561 </v>
    <v>       0.58315787       0.33360763       0.61347593 </v>
    <v>       0.58280289       0.08299644       0.60892252 </v>
    <v>       0.83404510       0.33320672       0.60890214 </v>
    <v>       0.83403792       0.08291616       0.60892486 </v>
    <v>       0.58333000       0.83333000       0.39081000 </v>
    <v>       0.58333000       0.58333000       0.39081000 </v>
    <v>       0.83333000       0.83333000       0.39081000 </v>
    <v>       0.83333000       0.58333000       0.39081000 </v>
    <v>       0.91667000       0.66667000       0.46360000 </v>
    <v>       0.91667000       0.91667000       0.46360000 </v>
    <v>       0.66667000       0.66667000       0.46360000 </v>
    <v>       0.66667000       0.91667000       0.46360000 </v>
    <v>       0.74990172       0.50009180       0.53577685 </v>
    <v>       0.74989390       0.75007927       0.53573603 </v>
    <v>       0.00000057       0.49994544       0.53573777 </v>
    <v>       0.99996991       0.75011975       0.53574921 </v>
    <v>       0.58334176       0.83345659       0.60897144 </v>
    <v>       0.58288851       0.58448888       0.60890891 </v>
    <v>       0.83313200       0.83354025       0.60894503 </v>
    <v>       0.83328288       0.58352949       0.60894069 </v>
    <v>       0.58396750       0.33259602       0.66299421 </v>
   </varray>
  </structure>
  <varray name="forces" >
   <v>       0.00012407      -0.02433197      -0.04909712 </v>
   <v>       0.05410503      -0.03256207      -0.10622761 </v>
   <v>       0.00092424      -0.00034958      -0.05985249 </v>
   <v>      -0.05461909      -0.03226948      -0.10711163 </v>
   <v>      -0.02064124      -0.01233539      -0.02520423 </v>
   <v>       0.04792001      -0.02459389       0.21146446 </v>
   <v>      -0.00034134      -0.00296191       0.06503320 </v>
   <v>       0.01782837       0.00768364       0.03111989 </v>
   <v>       0.00298658      -0.00425270      -0.00097868 </v>
   <v>      -0.00198073      -0.00138095       0.00203525 </v>
   <v>       0.00091261       0.00098378      -0.00360147 </v>
   <v>       0.00268562       0.00011015       0.00361133 </v>
   <v>      -0.00013002       0.00039381       0.00143455 </v>
   <v>       0.00041215      -0.00438358      -0.00071369 </v>
   <v>      -0.00103142       0.00101894       0.00353256 </v>
   <v>      -0.00021129      -0.00091748      -0.00083201 </v>
   <v>       0.02146487       0.01239070      -0.04659448 </v>
   <v>       0.00364610      -0.00071701      -0.04844601 </v>
   <v>      -0.00062648       0.06431048      -0.10700704 </v>
   <v>       0.00219050       0.00010277      -0.05661402 </v>
   <v>      -0.00144596       0.02190625      -0.02479815 </v>
   <v>      -0.00178801       0.00270558       0.06614944 </v>
   <v>       0.00203551      -0.01736335       0.03236694 </v>
   <v>       0.00096103       0.00206412       0.06611596 </v>
   <v>       0.00142039       0.00259016      -0.00112620 </v>
   <v>       0.00037503       0.00040455       0.00072362 </v>
   <v>       0.00374701       0.00608085      -0.00317755 </v>
   <v>       0.00329852      -0.00045924       0.00226398 </v>
   <v>      -0.00087010      -0.00009257      -0.00214641 </v>
   <v>       0.00056187       0.00100274      -0.00182462 </v>
   <v>      -0.00266816      -0.00285860       0.00092124 </v>
   <v>       0.00053646      -0.00518725       0.00306086 </v>
   <v>       0.00006794       0.00008000      -0.06591068 </v>
   <v>       0.00013573       0.00111518      -0.05867378 </v>
   <v>      -0.00082084      -0.00093486      -0.05865485 </v>
   <v>       0.00043534       0.00138311      -0.05771984 </v>
   <v>       0.01753958      -0.01135521      -0.02422295 </v>
   <v>      -0.02011334       0.00784097       0.03285277 </v>
   <v>       0.00004104       0.05508144       0.21094998 </v>
   <v>      -0.04938771      -0.02440751       0.21320487 </v>
   <v>       0.00009127       0.00650329       0.00008977 </v>
   <v>      -0.00100143      -0.00120127      -0.00089365 </v>
   <v>       0.00023314       0.00091305      -0.00104834 </v>
   <v>       0.00055504       0.00211146       0.00154229 </v>
   <v>      -0.00222359      -0.00928867       0.01553166 </v>
   <v>       0.00090409      -0.00341854      -0.00129197 </v>
   <v>       0.00309975       0.00105775       0.00309351 </v>
   <v>       0.00200369      -0.00222864      -0.00127135 </v>
   <v>      -0.02143331       0.01258458      -0.04736408 </v>
   <v>      -0.00200550       0.00003374      -0.05650046 </v>
   <v>       0.00052338       0.00379634      -0.04859253 </v>
   <v>      -0.00372554      -0.00140713      -0.04838402 </v>
   <v>       0.00075872       0.00130500       0.05893845 </v>
   <v>      -0.01473513       0.01275848       0.03352244 </v>
   <v>      -0.00370468      -0.01835268       0.03160304 </v>
   <v>       0.01350372       0.01337037       0.03341830 </v>
   <v>      -0.00192910      -0.00229541      -0.00318812 </v>
   <v>      -0.00038767      -0.00033096       0.00700646 </v>
   <v>       0.00067029       0.00039122      -0.00058045 </v>
   <v>       0.00210221      -0.00498691       0.00328102 </v>
   <v>      -0.00144833       0.00175732      -0.00335336 </v>
   <v>       0.00093016      -0.00205470       0.00324027 </v>
   <v>       0.00171278      -0.00011466      -0.00285537 </v>
   <v>      -0.00240202      -0.00059151      -0.00059829 </v>
   <v>      -0.00177179       0.00415386      -0.01165057 </v>
  </varray>
  <varray name="stress" >
   <v>     -20.67931469       0.01530169       0.00778890 </v>
   <v>       0.01530169     -20.67155563      -0.02253638 </v>
   <v>       0.00778890      -0.02253638     -18.94214095 </v>
  </varray>
  <energy>
   <i name="e_fr_energy">   -374.18535910 </i>
   <i name="e_wo_entrp">   -374.17184412 </i>
   <i name="e_0_energy">     -0.04054493 </i>
  </energy>
  <time name="totalsc">  229.42  230.08</time>
 </calculation>
 <calculation>
  <scstep>
   <time name="dav">   11.00   11.03</time>
   <time name="total">   11.30   11.34</time>
   <energy>
    <i name="alphaZ">   1139.09295860 </i>
    <i name="ewald"> 407097.26153096 </i>
    <i name="hartreedc">-454502.01331572 </i>
    <i name="XCdc">    195.34818013 </i>
    <i name="pawpsdc">  56247.74046104 </i>
    <i name="pawaedc"> -54611.16456003 </i>
    <i name="eentropy">     -0.04038916 </i>
    <i name="bandstr">  -2616.05372330 </i>
    <i name="atom">  46675.64354841 </i>
    <i name="e_fr_energy">   -374.18530906 </i>
    <i name="e_wo_entrp">   -374.14491990 </i>
    <i name="e_0_energy">   -374.17184601 </i>
   </energy>
  </scstep>
  <scstep>
   <time name="diag">    1.56    1.56</time>
   <time name="diis">    4.78    4.79</time>
   <time name="orth">    0.49    0.49</time>
   <time name="total">    7.14    7.16</time>
   <energy>
    <i name="e_fr_energy">   -374.18580571 </i>
    <i name="e_wo_entrp">   -374.14541695 </i>
    <i name="e_0_energy">   -374.17234279 </i>
   </energy>
  </scstep>
  <scstep>
   <time name="diag">    1.55    1.56</time>
   <time name="diis">    4.54    4.55</time>
   <time name="orth">    0.49    0.49</time>
   <time name="total">    6.89    6.91</time>
   <energy>
    <i name="e_fr_energy">   -374.18553277 </i>
    <i name="e_wo_entrp">   -374.14507540 </i>
    <i name="e_0_energy">   -374.17204698 </i>
   </energy>
  </scstep>
  <scstep>
   <time name="diag">    1.56    1.56</time>
   <time name="diis">    4.72    4.73</time>
   <time name="orth">    0.49    0.49</time>
   <time name="total">    7.08    7.10</time>
   <energy>
    <i name="e_fr_energy">   -374.18551473 </i>
    <i name="e_wo_entrp">   -374.14509388 </i>
    <i name="e_0_energy">   -374.17204112 </i>
   </energy>
  </scstep>
  <scstep>
   <time name="diag">    1.56    1.56</time>
   <time name="diis">    4.66    4.67</time>
   <time name="orth">    0.49    0.49</time>
   <time name="total">    7.01    7.03</time>
   <energy>
    <i name="e_fr_energy">   -374.18563372 </i>
    <i name="e_wo_entrp">   -374.14533381 </i>
    <i name="e_0_energy">   -374.17220042 </i>
   </energy>
  </scstep>
  <scstep>
   <time name="diag">    1.56    1.56</time>
   <time name="diis">    3.90    3.91</time>
   <time name="orth">    0.49    0.49</time>
   <time name="total">    5.96    5.98</time>
   <energy>
    <i name="alphaZ">   1139.09295860 </i>
    <i name="ewald"> 407097.26153096 </i>
    <i name="hartreedc">-454505.34700105 </i>
    <i name="XCdc">    195.35378072 </i>
    <i name="pawpsdc">  56247.69226862 </i>
    <i name="pawaedc"> -54611.12805288 </i>
    <i name="eentropy">     -0.04044789 </i>
    <i name="bandstr">  -2612.71422421 </i>
    <i name="atom">  46675.64354841 </i>
    <i name="e_fr_energy">   -374.18563872 </i>
    <i name="e_wo_entrp">   -374.14519083 </i>
    <i name="e_0_energy">   -374.17215609 </i>
   </energy>
  </scstep>
  <structure>
   <crystal>
    <varray name="basis" >
     <v>      11.21440000       0.00000000       0.00000000 </v>
     <v>       5.60720000       9.71195529       0.00000000 </v>
     <v>       0.00000000       0.00000000      31.44560000 </v>
    </varray>
    <i name="volume">   3424.85826052 </i>
    <varray name="rec_basis" >
     <v>       0.08917107      -0.05148294       0.00000000 </v>
     <v>       0.00000000       0.10296588       0.00000000 </v>
     <v>       0.00000000       0.00000000       0.03180095 </v>
    </varray>
   </crystal>
   <varray name="positions" >
    <v>       0.08333000       0.33333000       0.39081000 </v>
    <v>       0.08333000       0.08333000       0.39081000 </v>
    <v>       0.33333000       0.33333000       0.39081000 </v>
    <v>       0.33333000       0.08333000       0.39081000 </v>
    <v>       0.41667000       0.16667000       0.46360000 </v>
    <v>       0.41667000       0.41667000       0.46360000 </v>
    <v>       0.16667000       0.16667000       0.46360000 </v>
    <v>       0.16667000       0.41667000       0.46360000 </v>
    <v>       0.24997144       0.00003304       0.53571396 </v>
    <v>       0.25031769       0.25009460       0.53565278 </v>
    <v>       0.50000544       0.00042157       0.53567741 </v>
    <v>       0.50071783       0.25090443       0.53659324 </v>
    <v>       0.08311689       0.33356088       0.60894570 </v>
    <v>       0.08338460       0.08345964       0.60896944 </v>
    <v>       0.33255427       0.33326029       0.60890124 </v>
    <v>       0.33309249       0.08339233       0.60897306 </v>
    <v>       0.08333000       0.83333000       0.39081000 </v>
    <v>       0.08333000       0.58333000       0.39081000 </v>
    <v>       0.33333000       0.83333000       0.39081000 </v>
    <v>       0.33333000       0.58333000       0.39081000 </v>
    <v>       0.41667000       0.66667000       0.46360000 </v>
    <v>       0.41667000       0.91667000       0.46360000 </v>
    <v>       0.16667000       0.66667000       0.46360000 </v>
    <v>       0.16667000       0.91667000       0.46360000 </v>
    <v>       0.24993120       0.50007500       0.53576754 </v>
    <v>       0.25029847       0.74966507       0.53564451 </v>
    <v>       0.50076237       0.49832483       0.53663987 </v>
    <v>       0.49998050       0.74964490       0.53563681 </v>
    <v>       0.08308521       0.83354879       0.60895958 </v>
    <v>       0.08310851       0.58354903       0.60893988 </v>
    <v>       0.33313662       0.83372187       0.60894331 </v>
    <v>       0.33247438       0.58455413       0.60890477 </v>
    <v>       0.58333000       0.33333000       0.39081000 </v>
    <v>       0.58333000       0.08333000       0.39081000 </v>
    <v>       0.83333000       0.33333000       0.39081000 </v>
    <v>       0.83333000       0.08333000       0.39081000 </v>
    <v>       0.91667000       0.16667000       0.46360000 </v>
    <v>       0.91667000       0.41667000       0.46360000 </v>
    <v>       0.66667000       0.16667000       0.46360000 </v>
    <v>       0.66667000       0.41667000       0.46360000 </v>
    <v>       0.74990959       0.00009917       0.53576565 </v>
    <v>       0.74825409       0.25093738       0.53660507 </v>
    <v>       0.99952488       0.00043911       0.53566414 </v>
    <v>       0.99954300       0.25006111       0.53564561 </v>
    <v>       0.58315787       0.33360763       0.61347593 </v>
    <v>       0.58280289       0.08299644       0.60892252 </v>
    <v>       0.83404510       0.33320672       0.60890214 </v>
    <v>       0.83403792       0.08291616       0.60892486 </v>
    <v>       0.58333000       0.83333000       0.39081000 </v>
    <v>       0.58333000       0.58333000       0.39081000 </v>
    <v>       0.83333000       0.83333000       0.39081000 </v>
    <v>       0.83333000       0.58333000       0.39081000 </v>
    <v>       0.91667000       0.66667000       0.46360000 </v>
    <v>       0.91667000       0.91667000       0.46360000 </v>
    <v>       0.66667000       0.66667000       0.46360000 </v>
    <v>       0.66667000       0.91667000       0.46360000 </v>
    <v>       0.74990172       0.50009180       0.53577685 </v>
    <v>       0.74989390       0.75007927       0.53573603 </v>
    <v>       0.00000057       0.49994544       0.53573777 </v>
    <v>       0.99996991       0.75011975       0.53574921 </v>
    <v>       0.58334176       0.83345659       0.60897144 </v>
    <v>       0.58288851       0.58448888       0.60890891 </v>
    <v>       0.83313200       0.83354025       0.60894503 </v>
    <v>       0.83328288       0.58352949       0.60894069 </v>
    <v>       0.58530507       0.33259602       0.66299421 </v>
   </varray>
  </structure>
  <varray name="forces" >
   <v>       0.00049049      -0.02490858      -0.04826639 </v>
   <v>       0.05478354      -0.03180568      -0.10526468 </v>
   <v>       0.00045711      -0.00077507      -0.05851757 </v>
   <v>      -0.05527870      -0.03203277      -0.10636349 </v>
   <v>      -0.02202392      -0.01252796      -0.02600176 </v>
   <v>       0.04744505      -0.02515514       0.21091983 </v>
   <v>       0.00031280      -0.00251158       0.06519113 </v>
   <v>       0.01741550       0.00737047       0.03131530 </v>
   <v>       0.00330592      -0.00357874      -0.00104011 </v>
   <v>      -0.00253423      -0.00137511       0.00121830 </v>
   <v>       0.00058926       0.00127982      -0.00376465 </v>
   <v>       0.00337110       0.00131831       0.00808516 </v>
   <v>      -0.00081219       0.00061233       0.00138004 </v>
   <v>       0.00051539      -0.00361946       0.00007484 </v>
   <v>      -0.00074548       0.00076754       0.00287575 </v>
   <v>       0.00015602      -0.00006272      -0.00034601 </v>
   <v>       0.02185660       0.01245575      -0.04817946 </v>
   <v>       0.00342494      -0.00165613      -0.04873928 </v>
   <v>      -0.00016728       0.06500839      -0.10802839 </v>
   <v>       0.00209854      -0.00040655      -0.05796183 </v>
   <v>      -0.00144967       0.02184167      -0.02577846 </v>
   <v>      -0.00154685       0.00340422       0.06585835 </v>
   <v>       0.00154467      -0.01796104       0.03182264 </v>
   <v>       0.00149451       0.00245281       0.06531756 </v>
   <v>       0.00081193       0.00204286      -0.00092906 </v>
   <v>       0.00039674       0.00081825       0.00135127 </v>
   <v>       0.00275151       0.00622319      -0.00213014 </v>
   <v>       0.00359956      -0.00039471       0.00271016 </v>
   <v>      -0.00105854       0.00022733      -0.00005081 </v>
   <v>       0.00051350       0.00014311      -0.00101766 </v>
   <v>      -0.00251526      -0.00289651       0.00185734 </v>
   <v>      -0.00023488      -0.00600139       0.00309471 </v>
   <v>      -0.00013228       0.00001979      -0.06484979 </v>
   <v>      -0.00047325       0.00168913      -0.05754487 </v>
   <v>      -0.00045181      -0.00079027      -0.05889417 </v>
   <v>       0.00041979       0.00192549      -0.05835557 </v>
   <v>       0.01730945      -0.01061561      -0.02444895 </v>
   <v>      -0.01960868       0.00777906       0.03296690 </v>
   <v>      -0.00053413       0.05498939       0.21028392 </v>
   <v>      -0.04875292      -0.02421060       0.21222320 </v>
   <v>      -0.00024799       0.00663521       0.00084999 </v>
   <v>       0.00107927      -0.00274126      -0.00342138 </v>
   <v>       0.00057342       0.00134395      -0.00013321 </v>
   <v>       0.00085624       0.00247811       0.00162454 </v>
   <v>       0.00315157      -0.00917167       0.01776915 </v>
   <v>       0.00014923      -0.00265590      -0.00108415 </v>
   <v>       0.00573403       0.00148502       0.00157213 </v>
   <v>       0.00191044      -0.00356042      -0.00049852 </v>
   <v>      -0.02193551       0.01313472      -0.04821676 </v>
   <v>      -0.00180014      -0.00032009      -0.05765334 </v>
   <v>       0.00022036       0.00363712      -0.04940667 </v>
   <v>      -0.00359208      -0.00204156      -0.04897114 </v>
   <v>       0.00059942       0.00067902       0.05901941 </v>
   <v>      -0.01501718       0.01267860       0.03298990 </v>
   <v>      -0.00321905      -0.01857390       0.03115567 </v>
   <v>       0.01328689       0.01331249       0.03306252 </v>
   <v>      -0.00144769      -0.00252929      -0.00320512 </v>
   <v>      -0.00044773      -0.00062620       0.00659811 </v>
   <v>       0.00062056      -0.00018322      -0.00143784 </v>
   <v>       0.00182410      -0.00541640       0.00346844 </v>
   <v>      -0.00118722       0.00124612      -0.00211413 </v>
   <v>       0.00151053      -0.00099070       0.00184614 </v>
   <v>       0.00143021      -0.00003344      -0.00105813 </v>
   <v>      -0.00233252      -0.00110433      -0.00066035 </v>
   <v>      -0.00846302       0.00423469      -0.01416856 </v>
  </varray>
  <varray name="stress" >
   <v>     -20.65325198       0.01116245       0.00585857 </v>
   <v>       0.01116245     -20.64173880      -0.02363964 </v>
   <v>       0.00585857      -0.02363964     -19.20322550 </v>
  </varray>
  <energy>
   <i name="e_fr_energy">   -374.18563872 </i>
   <i name="e_wo_entrp">   -374.17215609 </i>
   <i name="e_0_energy">     -0.04044789 </i>
  </energy>
  <time name="totalsc">   48.89   49.04</time>
 </calculation>
 <calculation>
  <scstep>
   <time name="dav">   10.93   10.96</time>
   <time name="total">   11.24   11.28</time>
   <energy>
    <i name="alphaZ">   1139.09295860 </i>
    <i name="ewald"> 407097.26365825 </i>
    <i name="hartreedc">-454505.74640557 </i>
    <i name="XCdc">    195.35464776 </i>
    <i name="pawpsdc">  56247.61700769 </i>
    <i name="pawaedc"> -54611.05352545 </i>
    <i name="eentropy">     -0.04036605 </i>
    <i name="bandstr">  -2612.31718089 </i>
    <i name="atom">  46675.64354841 </i>
    <i name="e_fr_energy">   -374.18565724 </i>
    <i name="e_wo_entrp">   -374.14529119 </i>
    <i name="e_0_energy">   -374.17220189 </i>
   </energy>
  </scstep>
  <scstep>
   <time name="diag">    1.55    1.56</time>
   <time name="diis">    4.81    4.82</time>
   <time name="orth">    0.49    0.49</time>
   <time name="total">    7.16    7.18</time>
   <energy>
    <i name="e_fr_energy">   -374.18584584 </i>
    <i name="e_wo_entrp">   -374.14525143 </i>
    <i name="e_0_energy">   -374.17231437 </i>
   </energy>
  </scstep>
  <scstep>
   <time name="diag">    1.56    1.56</time>
   <time name="diis">    4.78    4.79</time>
   <time name="orth">    0.49    0.49</time>
   <time name="total">    7.14    7.16</time>
   <energy>
    <i name="e_fr_energy">   -374.18676983 </i>
    <i name="e_wo_entrp">   -374.14650518 </i>
    <i name="e_0_energy">   -374.17334828 </i>
   </energy>
  </scstep>
  <scstep>
   <time name="diag">    1.56    1.56</time>
   <time name="diis">    4.82    4.83</time>
   <time name="orth">    0.49    0.49</time>
   <time name="total">    7.18    7.20</time>
   <energy>
    <i name="e_fr_energy">   -374.18632124 </i>
    <i name="e_wo_entrp">   -374.14639818 </i>
    <i name="e_0_energy">   -374.17301356 </i>
   </energy>
  </scstep>
  <scstep>
   <time name="diag">    1.56    1.57</time>
   <time name="diis">    4.75    4.76</time>
   <time name="orth">    0.49    0.49</time>
   <time name="total">    7.11    7.13</time>
   <energy>
    <i name="e_fr_energy">   -374.18598143 </i>
    <i name="e_wo_entrp">   -374.14553056 </i>
    <i name="e_0_energy">   -374.17249780 </i>
   </energy>
  </scstep>
  <scstep>
   <time name="diag">    1.55    1.56</time>
   <time name="diis">    4.64    4.65</time>
   <time name="orth">    0.49    0.49</time>
   <time name="total">    6.99    7.01</time>
   <energy>
    <i name="e_fr_energy">   -374.18594705 </i>
    <i name="e_wo_entrp">   -374.14545812 </i>
    <i name="e_0_energy">   -374.17245074 </i>
   </energy>
  </scstep>
  <scstep>
   <time name="diag">    1.56    1.56</time>
   <time name="diis">    2.79    2.80</time>
   <time name="orth">    0.49    0.49</time>
   <time name="total">    5.15    5.16</time>
   <energy>
    <i name="e_fr_energy">   -374.18596893 </i>
    <i name="e_wo_entrp">   -374.14567318 </i>
    <i name="e_0_energy">   -374.17253701 </i>
   </energy>
  </scstep>
  <scstep>
   <time name="diag">    1.55    1.56</time>
   <time name="diis">    2.73    2.74</time>
   <time name="orth">    0.49    0.49</time>
   <time name="total">    5.09    5.10</time>
   <energy>
    <i name="e_fr_energy">   -374.18599652 </i>
    <i name="e_wo_entrp">   -374.14557206 </i>
    <i name="e_0_energy">   -374.17252170 </i>
   </energy>
  </scstep>
  <scstep>
   <time name="diag">    1.55    1.56</time>
   <time name="diis">    2.59    2.59</time>
   <time name="orth">    0.49    0.49</time>
   <time name="total">    4.65    4.67</time>
   <energy>
    <i name="alphaZ">   1139.09295860 </i>
    <i name="ewald"> 407097.26365825 </i>
    <i name="hartreedc">-454508.22084126 </i>
    <i name="XCdc">    195.35864496 </i>
    <i name="pawpsdc">  56247.27382428 </i>
    <i name="pawaedc"> -54610.71228514 </i>
    <i name="eentropy">     -0.04040480 </i>
    <i name="bandstr">  -2609.84510957 </i>
    <i name="atom">  46675.64354841 </i>
    <i name="e_fr_energy">   -374.18600626 </i>
    <i name="e_wo_entrp">   -374.14560146 </i>
    <i name="e_0_energy">   -374.17253800 </i>
   </energy>
  </scstep>
  <structure>
   <crystal>
    <varray name="basis" >
     <v>      11.21440000       0.00000000       0.00000000 </v>
     <v>       5.60720000       9.71195529       0.00000000 </v>
     <v>       0.00000000       0.00000000      31.44560000 </v>
    </varray>
    <i name="volume">   3424.85826052 </i>
    <varray name="rec_basis" >
     <v>       0.08917107      -0.05148294       0.00000000 </v>
     <v>       0.00000000       0.10296588       0.00000000 </v>
     <v>       0.00000000       0.00000000       0.03180095 </v>
    </varray>
   </crystal>
   <varray name="positions" >
    <v>       0.08333000       0.33333000       0.39081000 </v>
    <v>       0.08333000       0.08333000       0.39081000 </v>
    <v>       0.33333000       0.33333000       0.39081000 </v>
    <v>       0.33333000       0.08333000       0.39081000 </v>
    <v>       0.41667000       0.16667000       0.46360000 </v>
    <v>       0.41667000       0.41667000       0.46360000 </v>
    <v>       0.16667000       0.16667000       0.46360000 </v>
    <v>       0.16667000       0.41667000       0.46360000 </v>
    <v>       0.24997144       0.00003304       0.53571396 </v>
    <v>       0.25031769       0.25009460       0.53565278 </v>
    <v>       0.50000544       0.00042157       0.53567741 </v>
    <v>       0.50071783       0.25090443       0.53659324 </v>
    <v>       0.08311689       0.33356088       0.60894570 </v>
    <v>       0.08338460       0.08345964       0.60896944 </v>
    <v>       0.33255427       0.33326029       0.60890124 </v>
    <v>       0.33309249       0.08339233       0.60897306 </v>
    <v>       0.08333000       0.83333000       0.39081000 </v>
    <v>       0.08333000       0.58333000       0.39081000 </v>
    <v>       0.33333000       0.83333000       0.39081000 </v>
    <v>       0.33333000       0.58333000       0.39081000 </v>
    <v>       0.41667000       0.66667000       0.46360000 </v>
    <v>       0.41667000       0.91667000       0.46360000 </v>
    <v>       0.16667000       0.66667000       0.46360000 </v>
    <v>       0.16667000       0.91667000       0.46360000 </v>
    <v>       0.24993120       0.50007500       0.53576754 </v>
    <v>       0.25029847       0.74966507       0.53564451 </v>
    <v>       0.50076237       0.49832483       0.53663987 </v>
    <v>       0.49998050       0.74964490       0.53563681 </v>
    <v>       0.08308521       0.83354879       0.60895958 </v>
    <v>       0.08310851       0.58354903       0.60893988 </v>
    <v>       0.33313662       0.83372187       0.60894331 </v>
    <v>       0.33247438       0.58455413       0.60890477 </v>
    <v>       0.58333000       0.33333000       0.39081000 </v>
    <v>       0.58333000       0.08333000       0.39081000 </v>
    <v>       0.83333000       0.33333000       0.39081000 </v>
    <v>       0.83333000       0.08333000       0.39081000 </v>
    <v>       0.91667000       0.16667000       0.46360000 </v>
    <v>       0.91667000       0.41667000       0.46360000 </v>
    <v>       0.66667000       0.16667000       0.46360000 </v>
    <v>       0.66667000       0.41667000       0.46360000 </v>
    <v>       0.74990959       0.00009917       0.53576565 </v>
    <v>       0.74825409       0.25093738       0.53660507 </v>
    <v>       0.99952488       0.00043911       0.53566414 </v>
    <v>       0.99954300       0.25006111       0.53564561 </v>
    <v>       0.58315787       0.33360763       0.61347593 </v>
    <v>       0.58280289       0.08299644       0.60892252 </v>
    <v>       0.83404510       0.33320672       0.60890214 </v>
    <v>       0.83403792       0.08291616       0.60892486 </v>
    <v>       0.58333000       0.83333000       0.39081000 </v>
    <v>       0.58333000       0.58333000       0.39081000 </v>
    <v>       0.83333000       0.83333000       0.39081000 </v>
    <v>       0.83333000       0.58333000       0.39081000 </v>
    <v>       0.91667000       0.66667000       0.46360000 </v>
    <v>       0.91667000       0.91667000       0.46360000 </v>
    <v>       0.66667000       0.66667000       0.46360000 </v>
    <v>       0.66667000       0.91667000       0.46360000 </v>
    <v>       0.74990172       0.50009180       0.53577685 </v>
    <v>       0.74989390       0.75007927       0.53573603 </v>
    <v>       0.00000057       0.49994544       0.53573777 </v>
    <v>       0.99996991       0.75011975       0.53574921 </v>
    <v>       0.58334176       0.83345659       0.60897144 </v>
    <v>       0.58288851       0.58448888       0.60890891 </v>
    <v>       0.83313200       0.83354025       0.60894503 </v>
    <v>       0.83328288       0.58352949       0.60894069 </v>
    <v>       0.58262993       0.33259602       0.66299421 </v>
   </varray>
  </structure>
  <varray name="forces" >
   <v>       0.00007707      -0.02479815      -0.04874365 </v>
   <v>       0.05513808      -0.03218775      -0.10649039 </v>
   <v>       0.00104216      -0.00070416      -0.05844166 </v>
   <v>      -0.05459041      -0.03162980      -0.10514113 </v>
   <v>      -0.02012818      -0.01172018      -0.02528742 </v>
   <v>       0.04738343      -0.02474231       0.21034445 </v>
   <v>      -0.00030181      -0.00239443       0.06505377 </v>
   <v>       0.01761605       0.00743611       0.03098932 </v>
   <v>       0.00331646      -0.00368238      -0.00058204 </v>
   <v>      -0.00178176      -0.00133770       0.00199529 </v>
   <v>       0.00063297       0.00150149      -0.00317864 </v>
   <v>       0.00033606      -0.00164830       0.00053200 </v>
   <v>       0.00070141       0.00054383       0.00112256 </v>
   <v>       0.00031098      -0.00340357       0.00032336 </v>
   <v>      -0.00364228       0.00109655       0.00235149 </v>
   <v>       0.00028687      -0.00025650      -0.00030523 </v>
   <v>       0.02190542       0.01271730      -0.04859828 </v>
   <v>       0.00331884      -0.00159829      -0.04878722 </v>
   <v>      -0.00033046       0.06482085      -0.10787850 </v>
   <v>       0.00247104      -0.00084575      -0.05731557 </v>
   <v>      -0.00106015       0.02151264      -0.02585284 </v>
   <v>      -0.00163884       0.00304007       0.06559940 </v>
   <v>       0.00160075      -0.01799708       0.03144233 </v>
   <v>       0.00106430       0.00249503       0.06545347 </v>
   <v>       0.00124481       0.00194156      -0.00103328 </v>
   <v>       0.00057666       0.00028473       0.00159539 </v>
   <v>       0.00484316       0.00619456      -0.00238875 </v>
   <v>       0.00351184       0.00004541       0.00272232 </v>
   <v>      -0.00103840      -0.00065355      -0.00023173 </v>
   <v>       0.00055662       0.00019665      -0.00051160 </v>
   <v>      -0.00220023      -0.00311076       0.00196697 </v>
   <v>       0.00031406      -0.00436013       0.00227811 </v>
   <v>       0.00001059       0.00003797      -0.06384039 </v>
   <v>      -0.00015669       0.00188679      -0.05773937 </v>
   <v>      -0.00078861      -0.00083343      -0.05818076 </v>
   <v>       0.00026896       0.00233813      -0.05748635 </v>
   <v>       0.01849949      -0.01114614      -0.02539834 </v>
   <v>      -0.01975145       0.00801789       0.03249091 </v>
   <v>       0.00000501       0.05519305       0.21000336 </v>
   <v>      -0.04926680      -0.02475290       0.21225600 </v>
   <v>      -0.00016457       0.00683837       0.00075315 </v>
   <v>      -0.00215418       0.00031652       0.00368106 </v>
   <v>       0.00061689       0.00119983      -0.00044820 </v>
   <v>       0.00134469       0.00222519       0.00127828 </v>
   <v>      -0.00823617      -0.00915284       0.01656287 </v>
   <v>       0.00058702      -0.00491134      -0.00094151 </v>
   <v>       0.00245323       0.00102918       0.00219004 </v>
   <v>       0.00235459      -0.00107909      -0.00075843 </v>
   <v>      -0.02170913       0.01275895      -0.04861455 </v>
   <v>      -0.00188015      -0.00052470      -0.05743133 </v>
   <v>       0.00007946       0.00365634      -0.04931378 </v>
   <v>      -0.00373193      -0.00196231      -0.04885207 </v>
   <v>       0.00053525       0.00074989       0.05868703 </v>
   <v>      -0.01514571       0.01265140       0.03253655 </v>
   <v>      -0.00318397      -0.01875561       0.03088193 </v>
   <v>       0.01346024       0.01341537       0.03286302 </v>
   <v>      -0.00157577      -0.00254897      -0.00323520 </v>
   <v>      -0.00059731      -0.00046000       0.00679716 </v>
   <v>       0.00069365      -0.00026182      -0.00141626 </v>
   <v>       0.00199760      -0.00531749       0.00322100 </v>
   <v>      -0.00132438       0.00218404      -0.00271965 </v>
   <v>       0.00173499      -0.00270108       0.00257368 </v>
   <v>       0.00143272       0.00016484      -0.00050650 </v>
   <v>      -0.00269541      -0.00123906       0.00005933 </v>
   <v>       0.00475133       0.00422708      -0.01295494 </v>
  </varray>
  <varray name="stress" >
   <v>     -20.66014059       0.01776391       0.00805520 </v>
   <v>       0.01776391     -20.64882019      -0.02352757 </v>
   <v>       0.00805520      -0.02352757     -19.22757386 </v>
  </varray>
  <energy>
   <i name="e_fr_energy">   -374.18600626 </i>
   <i name="e_wo_entrp">   -374.17253800 </i>
   <i name="e_0_energy">     -0.04040480 </i>
  </energy>
  <time name="totalsc">   65.22   65.41</time>
 </calculation>
 <calculation>
  <scstep>
   <time name="dav">   10.92   10.95</time>
   <time name="total">   11.23   11.26</time>
   <energy>
    <i name="alphaZ">   1139.09295860 </i>
    <i name="ewald"> 407097.26583880 </i>
    <i name="hartreedc">-454508.37413488 </i>
    <i name="XCdc">    195.35892703 </i>
    <i name="pawpsdc">  56247.24577567 </i>
    <i name="pawaedc"> -54610.68431426 </i>
    <i name="eentropy">     -0.04037105 </i>
[...]
       <r>    -8.8452     5.4440     4.9751 </r>
       <r>    -8.7906    13.3327     5.7041 </r>
       <r>    -8.7359    17.4083     6.6559 </r>
       <r>    -8.6812    13.9884     7.4207 </r>
       <r>    -8.6265     6.6882     7.7864 </r>
       <r>    -8.5719     4.2226     8.0172 </r>
       <r>    -8.5172     7.6041     8.4330 </r>
       <r>    -8.4625    11.7941     9.0778 </r>
       <r>    -8.4078    11.6984     9.7174 </r>
       <r>    -8.3532     5.4377    10.0147 </r>
       <r>    -8.2985    -0.2345    10.0019 </r>
       <r>    -8.2438    -1.7476     9.9064 </r>
       <r>    -8.1891     2.5329    10.0448 </r>
       <r>    -8.1345    16.4282    10.9430 </r>
       <r>    -8.0798    29.7345    12.5688 </r>
       <r>    -8.0251    25.5296    13.9646 </r>
       <r>    -7.9704    11.6799    14.6032 </r>
       <r>    -7.9158     8.0261    15.0420 </r>
       <r>    -7.8611    10.7078    15.6275 </r>
       <r>    -7.8064     7.0960    16.0154 </r>
       <r>    -7.7517     2.0500    16.1275 </r>
       <r>    -7.6971     4.5053    16.3738 </r>
       <r>    -7.6424    18.2099    17.3695 </r>
       <r>    -7.5877    39.6955    19.5398 </r>
       <r>    -7.5330    51.9628    22.3809 </r>
       <r>    -7.4784    50.4364    25.1385 </r>
       <r>    -7.4237    48.0408    27.7651 </r>
       <r>    -7.3690    41.1186    30.0132 </r>
       <r>    -7.3143    29.7533    31.6400 </r>
       <r>    -7.2597    35.0876    33.5584 </r>
       <r>    -7.2050    59.2275    36.7966 </r>
       <r>    -7.1503    74.8857    40.8910 </r>
       <r>    -7.0956    60.4782    44.1976 </r>
       <r>    -7.0410    40.2347    46.3975 </r>
       <r>    -6.9863    44.4587    48.8282 </r>
       <r>    -6.9316    56.3544    51.9094 </r>
       <r>    -6.8769    61.4143    55.2672 </r>
       <r>    -6.8223    66.1250    58.8826 </r>
       <r>    -6.7676    65.9027    62.4858 </r>
       <r>    -6.7129    67.6376    66.1839 </r>
       <r>    -6.6582    82.6643    70.7035 </r>
       <r>    -6.6036    99.4305    76.1399 </r>
       <r>    -6.5489   103.5943    81.8038 </r>
       <r>    -6.4942   103.1242    87.4421 </r>
       <r>    -6.4396    96.6437    92.7261 </r>
       <r>    -6.3849    85.9098    97.4232 </r>
       <r>    -6.3302    90.8229   102.3889 </r>
       <r>    -6.2755   103.7331   108.0605 </r>
       <r>    -6.2209    96.6434   113.3445 </r>
       <r>    -6.1662    78.5862   117.6412 </r>
       <r>    -6.1115    71.3893   121.5443 </r>
       <r>    -6.0568    67.6660   125.2440 </r>
       <r>    -6.0022    66.5166   128.8808 </r>
       <r>    -5.9475    67.6104   132.5773 </r>
       <r>    -5.8928    57.4831   135.7202 </r>
       <r>    -5.8381    37.0646   137.7467 </r>
       <r>    -5.7835    32.0975   139.5016 </r>
       <r>    -5.7288    57.3921   142.6395 </r>
       <r>    -5.6741    90.3860   147.5814 </r>
       <r>    -5.6194   103.9526   153.2650 </r>
       <r>    -5.5648    96.4174   158.5366 </r>
       <r>    -5.5101    82.5676   163.0509 </r>
       <r>    -5.4554    73.7554   167.0835 </r>
       <r>    -5.4007    73.2523   171.0885 </r>
       <r>    -5.3461    78.6618   175.3893 </r>
       <r>    -5.2914    84.4532   180.0068 </r>
       <r>    -5.2367    91.3250   185.0000 </r>
       <r>    -5.1820    95.3537   190.2134 </r>
       <r>    -5.1274    88.2717   195.0397 </r>
       <r>    -5.0727    78.1385   199.3119 </r>
       <r>    -5.0180    77.3410   203.5405 </r>
       <r>    -4.9633    74.3632   207.6063 </r>
       <r>    -4.9087    60.2733   210.9017 </r>
       <r>    -4.8540    55.6806   213.9460 </r>
       <r>    -4.7993    75.0579   218.0498 </r>
       <r>    -4.7446    93.7392   223.1749 </r>
       <r>    -4.6900    94.1610   228.3232 </r>
       <r>    -4.6353    94.8216   233.5075 </r>
       <r>    -4.5806   109.8677   239.5145 </r>
       <r>    -4.5259   126.9431   246.4551 </r>
       <r>    -4.4713   136.1955   253.9016 </r>
       <r>    -4.4166   135.1052   261.2884 </r>
       <r>    -4.3619   118.1509   267.7483 </r>
       <r>    -4.3072    93.4445   272.8573 </r>
       <r>    -4.2526    91.3227   277.8504 </r>
       <r>    -4.1979   123.3975   284.5971 </r>
       <r>    -4.1432   156.2108   293.1379 </r>
       <r>    -4.0885   156.0516   301.6700 </r>
       <r>    -4.0339   146.8693   309.7000 </r>
       <r>    -3.9792   152.9145   318.0606 </r>
       <r>    -3.9245   150.0903   326.2668 </r>
       <r>    -3.8698   141.8725   334.0236 </r>
       <r>    -3.8152   144.6594   341.9328 </r>
       <r>    -3.7605   146.7528   349.9565 </r>
       <r>    -3.7058   147.2863   358.0094 </r>
       <r>    -3.6511   147.1300   366.0536 </r>
       <r>    -3.5965   125.4914   372.9149 </r>
       <r>    -3.5418    90.5491   377.8656 </r>
       <r>    -3.4871    76.2687   382.0356 </r>
       <r>    -3.4324    76.8239   386.2359 </r>
       <r>    -3.3778    74.4778   390.3080 </r>
       <r>    -3.3231    75.7073   394.4473 </r>
       <r>    -3.2684    78.0715   398.7158 </r>
       <r>    -3.2137    68.7054   402.4722 </r>
       <r>    -3.1591    57.7472   405.6296 </r>
       <r>    -3.1044    75.4669   409.7557 </r>
       <r>    -3.0497   120.4027   416.3387 </r>
       <r>    -2.9950   155.1832   424.8233 </r>
       <r>    -2.9404   157.4844   433.4337 </r>
       <r>    -2.8857   129.8313   440.5322 </r>
       <r>    -2.8310    96.1908   445.7914 </r>
       <r>    -2.7763    80.2539   450.1793 </r>
       <r>    -2.7217    75.7033   454.3183 </r>
       <r>    -2.6670    75.5754   458.4504 </r>
       <r>    -2.6123    77.2532   462.6742 </r>
       <r>    -2.5576    78.5334   466.9680 </r>
       <r>    -2.5030    85.7654   471.6572 </r>
       <r>    -2.4483    89.1102   476.5293 </r>
       <r>    -2.3936    80.3285   480.9212 </r>
       <r>    -2.3389    82.9816   485.4582 </r>
       <r>    -2.2843   102.3352   491.0534 </r>
       <r>    -2.2296   106.4825   496.8753 </r>
       <r>    -2.1749    99.5053   502.3157 </r>
       <r>    -2.1202   120.3587   508.8963 </r>
       <r>    -2.0656   150.0338   517.0994 </r>
       <r>    -2.0109   147.7371   525.1769 </r>
       <r>    -1.9562   133.7243   532.4882 </r>
       <r>    -1.9015   119.2776   539.0097 </r>
       <r>    -1.8469   108.4818   544.9409 </r>
       <r>    -1.7922   102.5075   550.5455 </r>
       <r>    -1.7375    71.4231   554.4505 </r>
       <r>    -1.6828    43.2811   556.8169 </r>
       <r>    -1.6282    60.9849   560.1512 </r>
       <r>    -1.5735    99.2615   565.5783 </r>
       <r>    -1.5188   116.4933   571.9476 </r>
       <r>    -1.4641   116.6761   578.3268 </r>
       <r>    -1.4095   120.8718   584.9355 </r>
       <r>    -1.3548   109.9495   590.9469 </r>
       <r>    -1.3001    84.8619   595.5867 </r>
       <r>    -1.2454    86.6963   600.3268 </r>
       <r>    -1.1908   109.8629   606.3336 </r>
       <r>    -1.1361   123.3473   613.0775 </r>
       <r>    -1.0814   140.4762   620.7580 </r>
       <r>    -1.0267   165.5054   629.8070 </r>
       <r>    -0.9721   169.1848   639.0572 </r>
       <r>    -0.9174   150.1601   647.2671 </r>
       <r>    -0.8627   121.9722   653.9359 </r>
       <r>    -0.8080   103.6560   659.6033 </r>
       <r>    -0.7534   105.0411   665.3464 </r>
       <r>    -0.6987   102.2442   670.9366 </r>
       <r>    -0.6440    85.9050   675.6334 </r>
       <r>    -0.5893    57.9410   678.8013 </r>
       <r>    -0.5347    24.6798   680.1507 </r>
       <r>    -0.4800     7.9489   680.5853 </r>
       <r>    -0.4253    13.4441   681.3203 </r>
       <r>    -0.3707    25.0626   682.6906 </r>
       <r>    -0.3160    28.5389   684.2510 </r>
       <r>    -0.2613    23.6572   685.5444 </r>
       <r>    -0.2066    19.0938   686.5884 </r>
       <r>    -0.1520    17.5166   687.5461 </r>
       <r>    -0.0973    16.2487   688.4345 </r>
       <r>    -0.0426    19.4245   689.4965 </r>
       <r>     0.0121    27.7213   691.0122 </r>
       <r>     0.0667    27.5261   692.5172 </r>
       <r>     0.1214    21.9957   693.7198 </r>
       <r>     0.1761    24.9679   695.0849 </r>
       <r>     0.2308    35.2197   697.0105 </r>
       <r>     0.2854    40.4916   699.2244 </r>
       <r>     0.3401    31.5277   700.9482 </r>
       <r>     0.3948    20.0317   702.0434 </r>
       <r>     0.4495    18.3156   703.0448 </r>
       <r>     0.5041    17.3297   703.9923 </r>
       <r>     0.5588    10.9030   704.5884 </r>
       <r>     0.6135     6.3613   704.9362 </r>
       <r>     0.6682     5.3979   705.2313 </r>
       <r>     0.7228     3.5688   705.4265 </r>
       <r>     0.7775     4.6530   705.6809 </r>
       <r>     0.8322    11.2705   706.2971 </r>
       <r>     0.8869    17.1280   707.2335 </r>
       <r>     0.9415    23.4548   708.5159 </r>
       <r>     0.9962    28.7745   710.0892 </r>
       <r>     1.0509    26.3979   711.5325 </r>
       <r>     1.1056    22.7312   712.7753 </r>
       <r>     1.1602    22.7111   714.0170 </r>
       <r>     1.2149    23.1196   715.2811 </r>
       <r>     1.2696    27.7577   716.7987 </r>
       <r>     1.3243    36.4522   718.7917 </r>
       <r>     1.3789    33.3643   720.6159 </r>
       <r>     1.4336    23.7816   721.9162 </r>
       <r>     1.4883    22.9221   723.1694 </r>
       <r>     1.5430    23.1785   724.4367 </r>
       <r>     1.5976    19.8243   725.5206 </r>
       <r>     1.6523    15.8668   726.3881 </r>
       <r>     1.7070    12.4917   727.0711 </r>
       <r>     1.7617    14.0678   727.8402 </r>
       <r>     1.8163    19.4011   728.9010 </r>
       <r>     1.8710    16.9902   729.8299 </r>
       <r>     1.9257     7.4045   730.2348 </r>
       <r>     1.9804     9.4305   730.7504 </r>
       <r>     2.0350    27.0117   732.2272 </r>
       <r>     2.0897    36.2256   734.2079 </r>
       <r>     2.1444    21.3264   735.3739 </r>
       <r>     2.1991     4.0759   735.5967 </r>
       <r>     2.2537     5.3038   735.8867 </r>
       <r>     2.3084    19.0881   736.9304 </r>
       <r>     2.3631    30.2736   738.5856 </r>
       <r>     2.4178    29.4620   740.1964 </r>
       <r>     2.4724    21.6056   741.3777 </r>
       <r>     2.5271    15.5331   742.2269 </r>
       <r>     2.5818    15.0254   743.0484 </r>
       <r>     2.6365    16.4586   743.9483 </r>
       <r>     2.6911    18.3431   744.9512 </r>
       <r>     2.7458    23.4148   746.2314 </r>
       <r>     2.8005    24.3237   747.5613 </r>
       <r>     2.8552    21.6764   748.7465 </r>
       <r>     2.9098    23.9426   750.0555 </r>
       <r>     2.9645    25.1910   751.4328 </r>
       <r>     3.0192    21.5428   752.6107 </r>
       <r>     3.0739    15.0701   753.4346 </r>
       <r>     3.1285    10.2969   753.9976 </r>
       <r>     3.1832    11.6389   754.6340 </r>
       <r>     3.2379    15.6504   755.4896 </r>
       <r>     3.2926    26.5741   756.9426 </r>
       <r>     3.3472    40.7318   759.1696 </r>
       <r>     3.4019    33.7768   761.0163 </r>
       <r>     3.4566    13.7125   761.7660 </r>
       <r>     3.5113     8.6876   762.2410 </r>
       <r>     3.5659     9.6459   762.7684 </r>
       <r>     3.6206     3.9088   762.9821 </r>
       <r>     3.6753     1.5148   763.0650 </r>
       <r>     3.7300     8.5976   763.5350 </r>
       <r>     3.7846    15.9247   764.4057 </r>
       <r>     3.8393    12.8892   765.1104 </r>
       <r>     3.8940     6.7659   765.4804 </r>
       <r>     3.9487     9.7859   766.0154 </r>
       <r>     4.0033    13.6731   766.7630 </r>
       <r>     4.0580     8.6245   767.2345 </r>
       <r>     4.1127     4.4312   767.4768 </r>
       <r>     4.1674     5.3539   767.7695 </r>
       <r>     4.2220     3.9292   767.9843 </r>
       <r>     4.2767     0.7644   768.0261 </r>
       <r>     4.3314    -0.3015   768.0096 </r>
       <r>     4.3861    -0.1505   768.0014 </r>
       <r>     4.4407    -0.0239   768.0001 </r>
       <r>     4.4954    -0.0018   768.0000 </r>
       <r>     4.5501    -0.0001   768.0000 </r>
       <r>     4.6048    -0.0000   768.0000 </r>
       <r>     4.6594    -0.0000   768.0000 </r>
       <r>     4.7141    -0.0000   768.0000 </r>
       <r>     4.7688    -0.0000   768.0000 </r>
       <r>     4.8235     0.0000   768.0000 </r>
       <r>     4.8781     0.0000   768.0000 </r>
       <r>     4.9328     0.0000   768.0000 </r>
       <r>     4.9875     0.0000   768.0000 </r>
       <r>     5.0422     0.0000   768.0000 </r>
       <r>     5.0968     0.0000   768.0000 </r>
       <r>     5.1515     0.0000   768.0000 </r>
      </set>
     </set>
    </array>
   </total>
  </dos>
 </calculation>
 <structure name="finalpos" >
  <crystal>
   <varray name="basis" >
    <v>      11.21440000       0.00000000       0.00000000 </v>
    <v>       5.60720000       9.71195529       0.00000000 </v>
    <v>       0.00000000       0.00000000      31.44560000 </v>
   </varray>
   <i name="volume">   3424.85826052 </i>
   <varray name="rec_basis" >
    <v>       0.08917107      -0.05148294       0.00000000 </v>
    <v>       0.00000000       0.10296588       0.00000000 </v>
    <v>       0.00000000       0.00000000       0.03180095 </v>
   </varray>
  </crystal>
  <varray name="positions" >
   <v>       0.08333000       0.33333000       0.39081000 </v>
   <v>       0.08333000       0.08333000       0.39081000 </v>
   <v>       0.33333000       0.33333000       0.39081000 </v>
   <v>       0.33333000       0.08333000       0.39081000 </v>
   <v>       0.41667000       0.16667000       0.46360000 </v>
   <v>       0.41667000       0.41667000       0.46360000 </v>
   <v>       0.16667000       0.16667000       0.46360000 </v>
   <v>       0.16667000       0.41667000       0.46360000 </v>
   <v>       0.24997144       0.00003304       0.53571396 </v>
   <v>       0.25031769       0.25009460       0.53565278 </v>
   <v>       0.50000544       0.00042157       0.53567741 </v>
   <v>       0.50071783       0.25090443       0.53659324 </v>
   <v>       0.08311689       0.33356088       0.60894570 </v>
   <v>       0.08338460       0.08345964       0.60896944 </v>
   <v>       0.33255427       0.33326029       0.60890124 </v>
   <v>       0.33309249       0.08339233       0.60897306 </v>
   <v>       0.08333000       0.83333000       0.39081000 </v>
   <v>       0.08333000       0.58333000       0.39081000 </v>
   <v>       0.33333000       0.83333000       0.39081000 </v>
   <v>       0.33333000       0.58333000       0.39081000 </v>
   <v>       0.41667000       0.66667000       0.46360000 </v>
   <v>       0.41667000       0.91667000       0.46360000 </v>
   <v>       0.16667000       0.66667000       0.46360000 </v>
   <v>       0.16667000       0.91667000       0.46360000 </v>
   <v>       0.24993120       0.50007500       0.53576754 </v>
   <v>       0.25029847       0.74966507       0.53564451 </v>
   <v>       0.50076237       0.49832483       0.53663987 </v>
   <v>       0.49998050       0.74964490       0.53563681 </v>
   <v>       0.08308521       0.83354879       0.60895958 </v>
   <v>       0.08310851       0.58354903       0.60893988 </v>
   <v>       0.33313662       0.83372187       0.60894331 </v>
   <v>       0.33247438       0.58455413       0.60890477 </v>
   <v>       0.58333000       0.33333000       0.39081000 </v>
   <v>       0.58333000       0.08333000       0.39081000 </v>
   <v>       0.83333000       0.33333000       0.39081000 </v>
   <v>       0.83333000       0.08333000       0.39081000 </v>
   <v>       0.91667000       0.16667000       0.46360000 </v>
   <v>       0.91667000       0.41667000       0.46360000 </v>
   <v>       0.66667000       0.16667000       0.46360000 </v>
   <v>       0.66667000       0.41667000       0.46360000 </v>
   <v>       0.74990959       0.00009917       0.53576565 </v>
   <v>       0.74825409       0.25093738       0.53660507 </v>
   <v>       0.99952488       0.00043911       0.53566414 </v>
   <v>       0.99954300       0.25006111       0.53564561 </v>
   <v>       0.58315787       0.33360763       0.61347593 </v>
   <v>       0.58280289       0.08299644       0.60892252 </v>
   <v>       0.83404510       0.33320672       0.60890214 </v>
   <v>       0.83403792       0.08291616       0.60892486 </v>
   <v>       0.58333000       0.83333000       0.39081000 </v>
   <v>       0.58333000       0.58333000       0.39081000 </v>
   <v>       0.83333000       0.83333000       0.39081000 </v>
   <v>       0.83333000       0.58333000       0.39081000 </v>
   <v>       0.91667000       0.66667000       0.46360000 </v>
   <v>       0.91667000       0.91667000       0.46360000 </v>
   <v>       0.66667000       0.66667000       0.46360000 </v>
   <v>       0.66667000       0.91667000       0.46360000 </v>
   <v>       0.74990172       0.50009180       0.53577685 </v>
   <v>       0.74989390       0.75007927       0.53573603 </v>
   <v>       0.00000057       0.49994544       0.53573777 </v>
   <v>       0.99996991       0.75011975       0.53574921 </v>
   <v>       0.58334176       0.83345659       0.60897144 </v>
   <v>       0.58288851       0.58448888       0.60890891 </v>
   <v>       0.83313200       0.83354025       0.60894503 </v>
   <v>       0.83328288       0.58352949       0.60894069 </v>
   <v>       0.58396750       0.33259602       0.66251720 </v>
  </varray>
  <varray name="selective"  type="logical" >
   <v type="logical" >  F  F  F </v>
   <v type="logical" >  F  F  F </v>
   <v type="logical" >  F  F  F </v>
   <v type="logical" >  F  F  F </v>
   <v type="logical" >  F  F  F </v>
   <v type="logical" >  F  F  F </v>
   <v type="logical" >  F  F  F </v>
   <v type="logical" >  F  F  F </v>
   <v type="logical" >  F  F  F </v>
   <v type="logical" >  F  F  F </v>
   <v type="logical" >  F  F  F </v>
   <v type="logical" >  F  F  F </v>
   <v type="logical" >  F  F  F </v>
   <v type="logical" >  F  F  F </v>
   <v type="logical" >  F  F  F </v>
   <v type="logical" >  F  F  F </v>
   <v type="logical" >  F  F  F </v>
   <v type="logical" >  F  F  F </v>
   <v type="logical" >  F  F  F </v>
   <v type="logical" >  F  F  F </v>
   <v type="logical" >  F  F  F </v>
   <v type="logical" >  F  F  F </v>
   <v type="logical" >  F  F  F </v>
   <v type="logical" >  F  F  F </v>
   <v type="logical" >  F  F  F </v>
   <v type="logical" >  F  F  F </v>
   <v type="logical" >  F  F  F </v>
   <v type="logical" >  F  F  F </v>
   <v type="logical" >  F  F  F </v>
   <v type="logical" >  F  F  F </v>
   <v type="logical" >  F  F  F </v>
   <v type="logical" >  F  F  F </v>
   <v type="logical" >  F  F  F </v>
   <v type="logical" >  F  F  F </v>
   <v type="logical" >  F  F  F </v>
   <v type="logical" >  F  F  F </v>
   <v type="logical" >  F  F  F </v>
   <v type="logical" >  F  F  F </v>
   <v type="logical" >  F  F  F </v>
   <v type="logical" >  F  F  F </v>
   <v type="logical" >  F  F  F </v>
   <v type="logical" >  F  F  F </v>
   <v type="logical" >  F  F  F </v>
   <v type="logical" >  F  F  F </v>
   <v type="logical" >  F  F  F </v>
   <v type="logical" >  F  F  F </v>
   <v type="logical" >  F  F  F </v>
   <v type="logical" >  F  F  F </v>
   <v type="logical" >  F  F  F </v>
   <v type="logical" >  F  F  F </v>
   <v type="logical" >  F  F  F </v>
   <v type="logical" >  F  F  F </v>
   <v type="logical" >  F  F  F </v>
   <v type="logical" >  F  F  F </v>
   <v type="logical" >  F  F  F </v>
   <v type="logical" >  F  F  F </v>
   <v type="logical" >  F  F  F </v>
   <v type="logical" >  F  F  F </v>
   <v type="logical" >  F  F  F </v>
   <v type="logical" >  F  F  F </v>
   <v type="logical" >  F  F  F </v>
   <v type="logical" >  F  F  F </v>
   <v type="logical" >  F  F  F </v>
   <v type="logical" >  F  F  F </v>
   <v type="logical" >  T  T  T </v>
  </varray>
  <nose>
   <v>      -3.00000000       0.00000000       0.00010000       0.00010000 </v>
  </nose>
 </structure>
</modeling>
