
     Program PWSCF v.7.1 starts on 17Jun2023 at 11:44: 0 

     This program is part of the open-source Quantum ESPRESSO suite
     for quantum simulation of materials; please cite
         "P. Giannozzi et al., J. Phys.:Condens. Matter 21 395502 (2009);
         "P. Giannozzi et al., J. Phys.:Condens. Matter 29 465901 (2017);
         "P. Giannozzi et al., J. Chem. Phys. 152 154105 (2020);
          URL http://www.quantum-espresso.org", 
     in publications or presentations arising from this work. More details at
     http://www.quantum-espresso.org/quote

     Parallel version (MPI), running on    24 processors

     MPI processes distributed on     1 nodes
     69838 MiB available memory on the printing compute node when the environment starts
 
     Waiting for input...
     Reading input from standard input

     Current dimensions of program PWSCF are:
     Max number of different atomic species (ntypx) = 10
     Max number of k-points (npk) =  40000
     Max angular momentum in pseudopotentials (lmaxx) =  4
     file Al.pbe-n-kjpaw_psl.1.0.0.UPF: wavefunction(s)  3S 3P renormalized
     Found identity + ( -0.5000  0.0000  0.0000) symmetry
     This is a supercell, fractional translations are disabled
     Message from routine setup:
     using ibrav=0 with symmetry is DISCOURAGED, use correct ibrav instead
 
     R & G space division:  proc/nbgrp/npool/nimage =      24
     Subspace diagonalization in iterative solution of the eigenvalue problem:
     a serial algorithm will be used

 
     Parallelization info
     --------------------
     sticks:   dense  smooth     PW     G-vecs:    dense   smooth      PW
     Min          81      53     15                 7361     3997     605
     Max          82      54     16                 7370     4010     616
     Sum        1945    1285    367               176729    96075   14597
 
     Using Slab Decomposition
 


     bravais-lattice index     =            0
     lattice parameter (alat)  =      10.8235  a.u.
     unit-cell volume          =    2813.7848 (a.u.)^3
     number of atoms/cell      =           12
     number of atomic types    =            1
     number of electrons       =        36.00
     number of Kohn-Sham states=           22
     kinetic-energy cutoff     =      40.0000  Ry
     charge density cutoff     =     240.0000  Ry
     scf convergence threshold =      1.0E-07
     mixing beta               =       0.7000
     number of iterations used =            8  plain     mixing
     energy convergence thresh.=      1.0E-04
     force convergence thresh. =      7.0E-04
     Exchange-correlation= SLA  PW   PBX  PBC
                           (   1   4   3   4   0   0   0)
     nstep                     =           50


     celldm(1)=  10.823529  celldm(2)=   0.000000  celldm(3)=   0.000000
     celldm(4)=   0.000000  celldm(5)=   0.000000  celldm(6)=   0.000000

     crystal axes: (cart. coord. in units of alat)
               a(1) = (   1.000000   0.000000   0.000000 )  
               a(2) = (   0.500000   0.866025   0.000000 )  
               a(3) = (   0.000000   0.000000   2.562439 )  

     reciprocal axes: (cart. coord. in units 2 pi/alat)
               b(1) = (  1.000000 -0.577350  0.000000 )  
               b(2) = (  0.000000  1.154701  0.000000 )  
               b(3) = (  0.000000  0.000000  0.390253 )  


     PseudoPot. # 1 for Al read from file:
     /home/yyj/SSSP_1.3.0_PBE_efficiency/Al.pbe-n-kjpaw_psl.1.0.0.UPF
     MD5 check sum: cfc449ca30b5f3223ec38ddd88ac046d
     Pseudo is Projector augmented-wave + core cor, Zval =  3.0
     Generated using "atomic" code by A. Dal Corso  v.5.1
     Shape of augmentation charge: PSQ
     Using radial grid of 1135 points,  6 beta functions with: 
                l(1) =   0
                l(2) =   0
                l(3) =   1
                l(4) =   1
                l(5) =   2
                l(6) =   2
     Q(r) pseudized with 0 coefficients 


     atomic species   valence    mass     pseudopotential
        Al             3.00    26.98154     Al( 1.00)

      6 Sym. Ops. (no inversion) found



   Cartesian axes

     site n.     atom                  positions (alat units)
         1           Al  tau(   1) = (   0.2500000   0.1443376   0.0000000  )
         2           Al  tau(   2) = (   0.7500001   0.1443376   0.0000000  )
         3           Al  tau(   3) = (   0.4999999   0.5773502   0.0000000  )
         4           Al  tau(   4) = (   1.0000000   0.5773502   0.0000000  )
         5           Al  tau(   5) = (   0.0000000   0.2886752   0.4082484  )
         6           Al  tau(   6) = (   0.4999999   0.2886752   0.4082484  )
         7           Al  tau(   7) = (   0.2500000   0.7216878   0.4082484  )
         8           Al  tau(   8) = (   0.7500001   0.7216878   0.4082484  )
         9           Al  tau(   9) = (   0.0000000   0.0000000   0.8164965  )
        10           Al  tau(  10) = (   0.4999999   0.0000000   0.8164965  )
        11           Al  tau(  11) = (   0.2500000   0.4330126   0.8164965  )
        12           Al  tau(  12) = (   0.7500001   0.4330126   0.8164965  )

     number of k points=    16  Gaussian smearing, width (Ry)=  0.0030
                       cart. coord. in units 2pi/alat
        k(    1) = (   0.0000000   0.0000000   0.0000000), wk =   0.0165289
        k(    2) = (   0.0000000   0.1049728   0.0000000), wk =   0.0991736
        k(    3) = (   0.0000000   0.2099456   0.0000000), wk =   0.0991736
        k(    4) = (   0.0000000   0.3149183   0.0000000), wk =   0.0991736
        k(    5) = (   0.0000000   0.4198911   0.0000000), wk =   0.0991736
        k(    6) = (   0.0000000   0.5248639   0.0000000), wk =   0.0991736
        k(    7) = (   0.0909091   0.1574592   0.0000000), wk =   0.0991736
        k(    8) = (   0.0909091   0.2624319   0.0000000), wk =   0.1983471
        k(    9) = (   0.0909091   0.3674047   0.0000000), wk =   0.1983471
        k(   10) = (   0.0909091   0.4723775   0.0000000), wk =   0.1983471
        k(   11) = (   0.0909091  -0.5773503   0.0000000), wk =   0.0991736
        k(   12) = (   0.1818182   0.3149183   0.0000000), wk =   0.0991736
        k(   13) = (   0.1818182   0.4198911   0.0000000), wk =   0.1983471
        k(   14) = (   0.1818182  -0.6298367   0.0000000), wk =   0.1983471
        k(   15) = (   0.2727273  -0.6823230   0.0000000), wk =   0.0991736
        k(   16) = (   0.2727273  -0.5773503   0.0000000), wk =   0.0991736

     Dense  grid:   176729 G-vectors     FFT dimensions: (  54,  54, 144)

     Smooth grid:    96075 G-vectors     FFT dimensions: (  45,  45, 120)

     Estimated max dynamical RAM per process >      34.81 MB

     Estimated total dynamical RAM >     835.45 MB

     Initial potential from superposition of free atoms

     starting charge      35.9725, renormalised to      36.0000
     Starting wfcs are   48 randomized atomic wfcs
     Checking if some PAW data can be deallocated... 

     total cpu time spent up to now is        0.7 secs

     Self-consistent Calculation

     iteration #  1     ecut=    40.00 Ry     beta= 0.70
     Davidson diagonalization with overlap
     ethr =  1.00E-02,  avg # of iterations =  3.5

     total cpu time spent up to now is        1.8 secs

     total energy              =    -473.45671824 Ry
     estimated scf accuracy    <       0.58297263 Ry

     iteration #  2     ecut=    40.00 Ry     beta= 0.70
     Davidson diagonalization with overlap
     ethr =  1.62E-03,  avg # of iterations =  5.3

     total cpu time spent up to now is        3.0 secs

     total energy              =    -472.94997199 Ry
     estimated scf accuracy    <       6.70359352 Ry

     iteration #  3     ecut=    40.00 Ry     beta= 0.70
     Davidson diagonalization with overlap
     ethr =  1.62E-03,  avg # of iterations =  5.2

     total cpu time spent up to now is        4.2 secs

     total energy              =    -473.81513325 Ry
     estimated scf accuracy    <       0.02323772 Ry

     iteration #  4     ecut=    40.00 Ry     beta= 0.70
     Davidson diagonalization with overlap
     ethr =  6.45E-05,  avg # of iterations =  6.9

     total cpu time spent up to now is        5.4 secs

     total energy              =    -473.82168958 Ry
     estimated scf accuracy    <       0.01639710 Ry

     iteration #  5     ecut=    40.00 Ry     beta= 0.70
     Davidson diagonalization with overlap
     c_bands:  1 eigenvalues not converged
     ethr =  4.55E-05,  avg # of iterations =  3.1

     total cpu time spent up to now is        6.4 secs

     total energy              =    -473.82389752 Ry
     estimated scf accuracy    <       0.00031560 Ry

     iteration #  6     ecut=    40.00 Ry     beta= 0.70
     Davidson diagonalization with overlap
     c_bands:  1 eigenvalues not converged
     c_bands:  2 eigenvalues not converged
     c_bands:  1 eigenvalues not converged
     c_bands:  1 eigenvalues not converged
     c_bands:  1 eigenvalues not converged
     ethr =  8.77E-07,  avg # of iterations = 13.6

     negative rho (up, down):  2.894E-08 0.000E+00

     total cpu time spent up to now is        7.9 secs

     total energy              =    -473.82401114 Ry
     estimated scf accuracy    <       0.00514954 Ry

     iteration #  7     ecut=    40.00 Ry     beta= 0.70
     Davidson diagonalization with overlap
     c_bands:  1 eigenvalues not converged
     c_bands:  1 eigenvalues not converged
     ethr =  8.77E-07,  avg # of iterations =  6.4

     negative rho (up, down):  7.104E-07 0.000E+00

     total cpu time spent up to now is        9.0 secs

     total energy              =    -473.82418482 Ry
     estimated scf accuracy    <       0.00036253 Ry

     iteration #  8     ecut=    40.00 Ry     beta= 0.70
     Davidson diagonalization with overlap
     ethr =  8.77E-07,  avg # of iterations =  2.0

     negative rho (up, down):  7.966E-07 0.000E+00

     total cpu time spent up to now is       10.0 secs

     total energy              =    -473.82425566 Ry
     estimated scf accuracy    <       0.00003341 Ry

     iteration #  9     ecut=    40.00 Ry     beta= 0.70
     Davidson diagonalization with overlap
     ethr =  9.28E-08,  avg # of iterations =  3.3

     negative rho (up, down):  5.351E-07 0.000E+00

     total cpu time spent up to now is       11.0 secs

     total energy              =    -473.82425122 Ry
     estimated scf accuracy    <       0.00003552 Ry

     iteration # 10     ecut=    40.00 Ry     beta= 0.70
     Davidson diagonalization with overlap
     ethr =  9.28E-08,  avg # of iterations =  1.5

     negative rho (up, down):  5.431E-07 0.000E+00

     total cpu time spent up to now is       11.9 secs

     total energy              =    -473.82425368 Ry
     estimated scf accuracy    <       0.00000260 Ry

     iteration # 11     ecut=    40.00 Ry     beta= 0.70
     Davidson diagonalization with overlap
     ethr =  7.22E-09,  avg # of iterations =  4.4

     negative rho (up, down):  5.605E-07 0.000E+00

     total cpu time spent up to now is       13.1 secs

     total energy              =    -473.82425479 Ry
     estimated scf accuracy    <       0.00000045 Ry

     iteration # 12     ecut=    40.00 Ry     beta= 0.70
     Davidson diagonalization with overlap
     ethr =  1.26E-09,  avg # of iterations =  2.4

     negative rho (up, down):  5.649E-07 0.000E+00

     total cpu time spent up to now is       14.0 secs

     total energy              =    -473.82425479 Ry
     estimated scf accuracy    <       0.00000029 Ry

     iteration # 13     ecut=    40.00 Ry     beta= 0.70
     Davidson diagonalization with overlap
     ethr =  7.93E-10,  avg # of iterations =  1.7

     negative rho (up, down):  5.638E-07 0.000E+00

     total cpu time spent up to now is       15.0 secs

     total energy              =    -473.82425479 Ry
     estimated scf accuracy    <       0.00000013 Ry

     iteration # 14     ecut=    40.00 Ry     beta= 0.70
     Davidson diagonalization with overlap
     ethr =  3.69E-10,  avg # of iterations =  3.1

     negative rho (up, down):  5.631E-07 0.000E+00

     total cpu time spent up to now is       15.9 secs

     End of self-consistent calculation

          k = 0.0000 0.0000 0.0000 ( 11947 PWs)   bands (ev):

    -8.7210  -7.0425  -4.4334  -2.8678  -2.8678  -2.8678  -2.8327  -2.8327
    -2.8327  -1.4729  -1.4729  -1.4729  -1.3087  -0.9478  -0.9478  -0.9478
     1.3224   1.3224   1.3224   1.5488   1.5488   1.5488

          k = 0.0000 0.1050 0.0000 ( 11959 PWs)   bands (ev):

    -8.6713  -6.9933  -4.3843  -3.8482  -3.3240  -3.3240  -2.2863  -2.2863
    -2.2307  -1.7785  -1.7417  -1.7417  -1.2619  -0.5968  -0.5968  -0.1768
     0.5503   0.9786   0.9786   1.9893   1.9893   2.2159

          k = 0.0000 0.2099 0.0000 ( 11987 PWs)   bands (ev):

    -8.5226  -6.8457  -4.7599  -4.2371  -3.7047  -3.7047  -3.1194  -2.0895
    -2.0895  -1.6377  -1.6377  -1.1217  -0.8452  -0.2660  -0.0381  -0.0381
     0.6872   0.6872   1.1324   2.3557   2.4930   2.5954

          k = 0.0000 0.3149 0.0000 ( 12001 PWs)   bands (ev):

    -8.2752  -6.6000  -5.5817  -3.9924  -3.9912  -3.9912  -3.9302  -2.3638
    -2.3638  -1.3720  -0.9237  -0.9237  -0.8881   0.2084   0.2084   0.7001
     0.9232   0.9232   1.7230   2.3758   2.5866   3.0645

          k = 0.0000 0.4199 0.0000 ( 12029 PWs)   bands (ev):

    -7.9294  -6.3110  -6.2569  -4.6521  -4.1827  -4.1827  -3.6510  -2.5496
    -2.5496  -2.0656  -0.5615  -0.2972  -0.2972   0.2876   0.2876   0.9425
     1.6685   1.6685   2.0959   2.8088   2.8089   2.9030

          k = 0.0000 0.5249 0.0000 ( 12024 PWs)   bands (ev):

    -7.4862  -6.9463  -5.8172  -5.2818  -4.2786  -4.2786  -3.2143  -2.6844
    -2.6431  -2.6431  -0.1746  -0.1746  -0.1429   0.3651   0.9751   0.9751
     1.9428   1.9428   2.5078   2.5078   3.0458   3.0458

          k = 0.0909 0.1575 0.0000 ( 11973 PWs)   bands (ev):

    -8.5722  -6.8949  -4.2862  -4.2791  -4.2791  -2.7267  -2.6890  -2.6477
    -2.6477  -1.3353  -1.2027  -1.2027  -1.1684  -0.8046  -0.0653  -0.0653
     0.6485   0.6485   1.4567   1.6740   2.3092   2.8673

          k = 0.0909 0.2624 0.0000 ( 12007 PWs)   bands (ev):

    -8.3741  -6.6982  -5.1459  -4.6154  -4.0902  -3.4997  -3.0384  -2.9766
    -2.0031  -1.4624  -0.9882  -0.9815  -0.7077  -0.3158  -0.1253   0.1592
     1.2408   1.2697   1.7427   2.1562   2.2204   2.4947

          k = 0.0909 0.3674 0.0000 ( 12009 PWs)   bands (ev):

    -8.0775  -6.4039  -5.9215  -4.8562  -4.2664  -3.7971  -3.2751  -3.2132
    -1.6906  -1.6676  -1.2165  -0.7114  -0.7014   0.3746   0.4379   1.0708
     1.1668   1.6163   2.0100   2.4245   2.6174   2.7690

          k = 0.0909 0.4724 0.0000 ( 12034 PWs)   bands (ev):

    -7.6830  -6.6039  -6.0124  -5.0009  -4.9423  -3.4176  -3.4080  -3.3556
    -2.3498  -1.8000  -0.8148  -0.3681  -0.3287   0.6837   0.7055   1.2476
     1.3997   1.8375   2.2465   2.7675   2.8994   3.1219

          k = 0.0909-0.5774 0.0000 ( 12046 PWs)   bands (ev):

    -7.1915  -7.1915  -5.5249  -5.5248  -5.0491  -3.4651  -3.4032  -2.9246
    -2.9246  -1.8449  -0.8542   0.1351   0.1351   0.3003   0.6197   1.1459
     1.8687   2.0516   2.3117   2.5183   2.7468   3.4647

          k = 0.1818 0.3149 0.0000 ( 12023 PWs)   bands (ev):

    -8.1269  -6.4529  -5.4362  -5.4362  -3.8459  -3.7862  -3.7862  -2.3041
    -2.2597  -1.2316  -1.2316  -0.9245  -0.7480  -0.3777   0.8384   0.8384
     1.8391   1.8600   1.8600   1.9143   2.5109   2.5109

          k = 0.1818 0.4199 0.0000 ( 12032 PWs)   bands (ev):

    -7.7815  -6.1648  -6.1102  -5.6301  -4.5073  -3.9778  -3.5051  -2.4695
    -1.9230  -1.4393  -1.4083  -0.9093  -0.4217   0.2393   1.0799   1.3849
     1.4368   1.8949   1.9354   2.2342   2.9227   3.0378

          k = 0.1818-0.6298 0.0000 ( 12040 PWs)   bands (ev):

    -7.3387  -6.7995  -5.7271  -5.6709  -5.1361  -4.0738  -3.0692  -2.5631
    -2.5404  -1.4987  -0.9751  -0.5193  -0.0034   0.4551   0.5039   1.0637
     1.4833   1.6615   2.5095   2.6460   3.4101   3.4293

          k = 0.2727-0.6823 0.0000 ( 12043 PWs)   bands (ev):

    -7.3879  -6.3110  -6.3110  -5.7196  -4.6520  -4.6520  -3.1175  -2.0638
    -2.0638  -1.6017  -1.5512  -0.2589  -0.0497   0.3202   0.4366   0.9592
     0.9592   1.9151   2.9487   2.9763   3.0417   3.0417

          k = 0.2727-0.5774 0.0000 ( 12029 PWs)   bands (ev):

    -6.8974  -6.8973  -6.3598  -5.2332  -5.2332  -4.7003  -2.6360  -2.6360
    -2.1109  -1.6232  -0.6232  -0.5820  -0.1340   0.4129   0.4129   0.9157
     0.9164   1.2234   2.8387   3.6551   3.7143   3.7546

     the Fermi energy is     1.8524 ev

!    total energy              =    -473.82425477 Ry
     total all-electron energy =     -5827.537634 Ry
     estimated scf accuracy    <       0.00000004 Ry
     smearing contrib. (-TS)   =      -0.00053337 Ry
     internal energy E=F+TS    =    -473.82372139 Ry

     The total energy is F=E-TS. E is the sum of the following terms:
     one-electron contribution =    -170.05184215 Ry
     hartree contribution      =      95.97402516 Ry
     xc contribution           =     -30.40976706 Ry
     ewald contribution        =      46.80299174 Ry
     one-center paw contrib.   =    -416.13912909 Ry

     convergence has been achieved in  14 iterations

     negative rho (up, down):  5.631E-07 0.000E+00

     Forces acting on atoms (cartesian axes, Ry/au):

     atom    1 type  1   force =     0.00000075    0.00000043    0.00158031
     atom    2 type  1   force =    -0.00000075    0.00000043    0.00158031
     atom    3 type  1   force =    -0.00000000   -0.00000087    0.00158031
     atom    4 type  1   force =    -0.00000000   -0.00000000    0.00158054
     atom    5 type  1   force =     0.00000000    0.00000027    0.00000113
     atom    6 type  1   force =     0.00000000    0.00000000    0.00000094
     atom    7 type  1   force =    -0.00000023   -0.00000013    0.00000113
     atom    8 type  1   force =     0.00000023   -0.00000013    0.00000113
     atom    9 type  1   force =     0.00000000    0.00000000   -0.00158115
     atom   10 type  1   force =     0.00000000    0.00000105   -0.00158155
     atom   11 type  1   force =     0.00000091   -0.00000052   -0.00158155
     atom   12 type  1   force =    -0.00000091   -0.00000052   -0.00158155

     Total force =     0.003163     Total SCF correction =     0.000234

     BFGS Geometry Optimization
     Energy error            =      0.0E+00 Ry
     Gradient error          =      1.6E-03 Ry/Bohr

     number of scf cycles    =   1
     number of bfgs steps    =   0

     energy             new  =    -473.8242547650 Ry

     new trust radius        =       0.0015815502 bohr
     new conv_thr            =       0.0000001000 Ry


ATOMIC_POSITIONS (angstrom)
Al            1.4318910000        0.8267030000        0.0000000000    0   0   0
Al            4.2956740000        0.8267030000        0.0000000000    0   0   0
Al            2.8637820000        3.3068110000        0.0000000000    0   0   0
Al            5.7275650000        3.3068110000        0.0000000000    0   0   0
Al            0.0000000000        1.6534061427        2.3382695995
Al            2.8637820000        1.6534060000        2.3382694987
Al            1.4318908764        4.1335139287        2.3382695995
Al            4.2956741236        4.1335139287        2.3382695995
Al            0.0000000000        0.0000000000        4.6757002889
Al            2.8637820000        0.0000005542        4.6757000799
Al            1.4318914799        2.4801077229        4.6757000799
Al            4.2956735201        2.4801077229        4.6757000799



     Writing config-only to output data dir ./output/pwscf.save/
     NEW-OLD atomic charge density approx. for the potential

     negative rho (up, down):  6.080E-07 0.000E+00

     total cpu time spent up to now is       16.8 secs

     Self-consistent Calculation

     iteration #  1     ecut=    40.00 Ry     beta= 0.70
     Davidson diagonalization with overlap
     ethr =  1.00E-06,  avg # of iterations =  2.0

     Threshold (ethr) on eigenvalues was too large:
     Diagonalizing with lowered threshold

     Davidson diagonalization with overlap
     ethr =  4.59E-09,  avg # of iterations =  4.8

     negative rho (up, down):  5.760E-07 0.000E+00

     total cpu time spent up to now is       18.7 secs

     total energy              =    -473.82426074 Ry
     estimated scf accuracy    <       0.00000533 Ry

     iteration #  2     ecut=    40.00 Ry     beta= 0.70
     Davidson diagonalization with overlap
     ethr =  1.48E-08,  avg # of iterations =  5.4

     negative rho (up, down):  5.735E-07 0.000E+00

     total cpu time spent up to now is       19.9 secs

     total energy              =    -473.82424766 Ry
     estimated scf accuracy    <       0.00020572 Ry

     iteration #  3     ecut=    40.00 Ry     beta= 0.70
     Davidson diagonalization with overlap
     ethr =  1.48E-08,  avg # of iterations =  6.4

     negative rho (up, down):  5.722E-07 0.000E+00

     total cpu time spent up to now is       21.0 secs

     total energy              =    -473.82426238 Ry
     estimated scf accuracy    <       0.00003208 Ry

     iteration #  4     ecut=    40.00 Ry     beta= 0.70
     Davidson diagonalization with overlap
     ethr =  1.48E-08,  avg # of iterations =  2.6

     negative rho (up, down):  5.685E-07 0.000E+00

     total cpu time spent up to now is       22.0 secs

     total energy              =    -473.82426453 Ry
     estimated scf accuracy    <       0.00000022 Ry

     iteration #  5     ecut=    40.00 Ry     beta= 0.70
     Davidson diagonalization with overlap
     ethr =  5.99E-10,  avg # of iterations =  5.6

     negative rho (up, down):  5.622E-07 0.000E+00

     total cpu time spent up to now is       23.2 secs

     End of self-consistent calculation

          k = 0.0000 0.0000 0.0000 ( 11947 PWs)   bands (ev):

    -8.7223  -7.0431  -4.4329  -2.8691  -2.8691  -2.8691  -2.8340  -2.8340
    -2.8340  -1.4737  -1.4737  -1.4737  -1.3085  -0.9484  -0.9484  -0.9484
     1.3228   1.3228   1.3228   1.5493   1.5493   1.5493

          k = 0.0000 0.1050 0.0000 ( 11959 PWs)   bands (ev):

    -8.6727  -6.9939  -4.3838  -3.8495  -3.3254  -3.3254  -2.2876  -2.2876
    -2.2314  -1.7799  -1.7424  -1.7424  -1.2617  -0.5974  -0.5974  -0.1773
     0.5506   0.9790   0.9790   1.9898   1.9898   2.2169

          k = 0.0000 0.2099 0.0000 ( 11987 PWs)   bands (ev):

    -8.5240  -6.8463  -4.7612  -4.2367  -3.7060  -3.7060  -3.1201  -2.0902
    -2.0902  -1.6391  -1.6391  -1.1215  -0.8458  -0.2664  -0.0386  -0.0386
     0.6875   0.6875   1.1318   2.3567   2.4931   2.5958

          k = 0.0000 0.3149 0.0000 ( 12001 PWs)   bands (ev):

    -8.2765  -6.6007  -5.5830  -3.9925  -3.9925  -3.9919  -3.9308  -2.3645
    -2.3645  -1.3716  -0.9250  -0.9250  -0.8879   0.2086   0.2086   0.6989
     0.9227   0.9227   1.7231   2.3751   2.5876   3.0645

          k = 0.0000 0.4199 0.0000 ( 12029 PWs)   bands (ev):

    -7.9307  -6.3124  -6.2576  -4.6528  -4.1840  -4.1840  -3.6505  -2.5503
    -2.5503  -2.0651  -0.5613  -0.2978  -0.2978   0.2872   0.2872   0.9426
     1.6678   1.6678   2.0946   2.8082   2.8082   2.9040

          k = 0.0000 0.5249 0.0000 ( 12024 PWs)   bands (ev):

    -7.4875  -6.9476  -5.8178  -5.2824  -4.2799  -4.2799  -3.2138  -2.6839
    -2.6438  -2.6438  -0.1744  -0.1744  -0.1427   0.3652   0.9739   0.9739
     1.9416   1.9416   2.5071   2.5071   3.0458   3.0458

          k = 0.0909 0.1575 0.0000 ( 11973 PWs)   bands (ev):

    -8.5735  -6.8955  -4.2857  -4.2804  -4.2804  -2.7281  -2.6903  -2.6483
    -2.6483  -1.3360  -1.2040  -1.2040  -1.1682  -0.8052  -0.0651  -0.0651
     0.6480   0.6480   1.4571   1.6744   2.3102   2.8673

          k = 0.0909 0.2624 0.0000 ( 12007 PWs)   bands (ev):

    -8.3754  -6.6989  -5.1473  -4.6167  -4.0897  -3.5003  -3.0398  -2.9773
    -2.0044  -1.4631  -0.9880  -0.9813  -0.7083  -0.3164  -0.1256   0.1580
     1.2412   1.2690   1.7420   2.1563   2.2208   2.4957

          k = 0.0909 0.3674 0.0000 ( 12009 PWs)   bands (ev):

    -8.0788  -6.4045  -5.9229  -4.8575  -4.2671  -3.7967  -3.2765  -3.2138
    -1.6902  -1.6683  -1.2178  -0.7111  -0.7012   0.3741   0.4367   1.0710
     1.1663   1.6156   2.0093   2.4246   2.6168   2.7700

          k = 0.0909 0.4724 0.0000 ( 12034 PWs)   bands (ev):

    -7.6843  -6.6052  -6.0131  -5.0022  -4.9429  -3.4189  -3.4076  -3.3563
    -2.3493  -1.8006  -0.8144  -0.3694  -0.3285   0.6838   0.7055   1.2464
     1.3991   1.8364   2.2465   2.7663   2.8987   3.1224

          k = 0.0909-0.5774 0.0000 ( 12046 PWs)   bands (ev):

    -7.1928  -7.1928  -5.5255  -5.5255  -5.0505  -3.4664  -3.4038  -2.9241
    -2.9241  -1.8456  -0.8538   0.1353   0.1353   0.2997   0.6184   1.1455
     1.8681   2.0509   2.3104   2.5178   2.7463   3.4652

          k = 0.1818 0.3149 0.0000 ( 12023 PWs)   bands (ev):

    -8.1282  -6.4535  -5.4375  -5.4375  -3.8454  -3.7869  -3.7869  -2.3055
    -2.2610  -1.2312  -1.2312  -0.9253  -0.7478  -0.3782   0.8372   0.8372
     1.8394   1.8600   1.8600   1.9143   2.5102   2.5102

          k = 0.1818 0.4199 0.0000 ( 12032 PWs)   bands (ev):

    -7.7828  -6.1661  -6.1108  -5.6314  -4.5079  -3.9785  -3.5046  -2.4708
    -1.9226  -1.4407  -1.4078  -0.9101  -0.4215   0.2386   1.0800   1.3841
     1.4363   1.8942   1.9353   2.2329   2.9229   3.0388

          k = 0.1818-0.6298 0.0000 ( 12040 PWs)   bands (ev):

    -7.3400  -6.8008  -5.7285  -5.6716  -5.1368  -4.0744  -3.0687  -2.5644
    -2.5399  -1.4983  -0.9758  -0.5206  -0.0032   0.4538   0.5040   1.0631
     1.4834   1.6614   2.5092   2.6447   3.4109   3.4283

          k = 0.2727-0.6823 0.0000 ( 12043 PWs)   bands (ev):

    -7.3892  -6.3123  -6.3123  -5.7203  -4.6527  -4.6527  -3.1170  -2.0634
    -2.0634  -1.6031  -1.5526  -0.2597  -0.0495   0.3196   0.4353   0.9593
     0.9593   1.9148   2.9489   2.9768   3.0404   3.0404

          k = 0.2727-0.5774 0.0000 ( 12029 PWs)   bands (ev):

    -6.8987  -6.8987  -6.3611  -5.2338  -5.2338  -4.7010  -2.6355  -2.6355
    -2.1105  -1.6245  -0.6246  -0.5833  -0.1347   0.4131   0.4131   0.9151
     0.9166   1.2228   2.8391   3.6555   3.7147   3.7540

     the Fermi energy is     1.8521 ev

!    total energy              =    -473.82426461 Ry
     total all-electron energy =     -5827.537644 Ry
     estimated scf accuracy    <       0.00000004 Ry
     smearing contrib. (-TS)   =      -0.00053291 Ry
     internal energy E=F+TS    =    -473.82373170 Ry

     The total energy is F=E-TS. E is the sum of the following terms:
     one-electron contribution =    -170.11218069 Ry
     hartree contribution      =      96.00608159 Ry
     xc contribution           =     -30.41058602 Ry
     ewald contribution        =      46.83222359 Ry
     one-center paw contrib.   =    -416.13927018 Ry

     convergence has been achieved in   5 iterations

     negative rho (up, down):  5.622E-07 0.000E+00

     Forces acting on atoms (cartesian axes, Ry/au):

     atom    1 type  1   force =    -0.00000015   -0.00000009    0.00160801
     atom    2 type  1   force =     0.00000015   -0.00000009    0.00160801
     atom    3 type  1   force =     0.00000000    0.00000018    0.00160801
     atom    4 type  1   force =     0.00000000   -0.00000000    0.00160814
     atom    5 type  1   force =     0.00000000    0.00000000   -0.00009059
     atom    6 type  1   force =     0.00000000    0.00000000   -0.00009063
     atom    7 type  1   force =    -0.00000000   -0.00000000   -0.00009059
     atom    8 type  1   force =     0.00000000   -0.00000000   -0.00009059
     atom    9 type  1   force =     0.00000000    0.00000000   -0.00151770
     atom   10 type  1   force =     0.00000000   -0.00000017   -0.00151736
     atom   11 type  1   force =    -0.00000015    0.00000009   -0.00151736
     atom   12 type  1   force =     0.00000015    0.00000009   -0.00151736

     Total force =     0.003040     Total SCF correction =     0.000233
     Energy error            =      9.8E-06 Ry
     Gradient error          =      1.5E-03 Ry/Bohr

     number of scf cycles    =   2
     number of bfgs steps    =   1

     energy             old  =    -473.8242547650 Ry
     energy             new  =    -473.8242646077 Ry

     CASE: energy            _new < energy            _old


     WARNING: bfgs curvature condition failed, Theta= 0.834
     new trust radius        =       0.0017397052 bohr
     new conv_thr            =       0.0000000010 Ry


ATOMIC_POSITIONS (angstrom)
Al            1.4318910000        0.8267030000        0.0000000000    0   0   0
Al            4.2956740000        0.8267030000        0.0000000000    0   0   0
Al            2.8637820000        3.3068110000        0.0000000000    0   0   0
Al            5.7275650000        3.3068110000        0.0000000000    0   0   0
Al           -0.0000000000        1.6534062217        2.3382425722
Al            2.8637820000        1.6534060000        2.3382424027
Al            1.4318908080        4.1335138891        2.3382425722
Al            4.2956741920        4.1335138891        2.3382425722
Al            0.0000000000        0.0000000000        4.6747796892
Al            2.8637820000        0.0000008086        4.6747794676
Al            1.4318917002        2.4801075957        4.6747794676
Al            4.2956732998        2.4801075957        4.6747794676



     Writing config-only to output data dir ./output/pwscf.save/
     NEW-OLD atomic charge density approx. for the potential

     negative rho (up, down):  6.115E-07 0.000E+00

     total cpu time spent up to now is       23.8 secs

     Self-consistent Calculation

     iteration #  1     ecut=    40.00 Ry     beta= 0.70
     Davidson diagonalization with overlap
     ethr =  1.00E-06,  avg # of iterations =  2.0

     Threshold (ethr) on eigenvalues was too large:
     Diagonalizing with lowered threshold

     Davidson diagonalization with overlap
     ethr =  1.47E-09,  avg # of iterations =  5.8

     negative rho (up, down):  5.746E-07 0.000E+00

     total cpu time spent up to now is       25.9 secs

     total energy              =    -473.82427435 Ry
     estimated scf accuracy    <       0.00000070 Ry

     iteration #  2     ecut=    40.00 Ry     beta= 0.70
     Davidson diagonalization with overlap
     ethr =  1.94E-09,  avg # of iterations =  6.7

     negative rho (up, down):  5.742E-07 0.000E+00

     total cpu time spent up to now is       27.0 secs

     total energy              =    -473.82427145 Ry
     estimated scf accuracy    <       0.00005789 Ry

     iteration #  3     ecut=    40.00 Ry     beta= 0.70
     Davidson diagonalization with overlap
     ethr =  1.94E-09,  avg # of iterations =  6.8

     negative rho (up, down):  5.713E-07 0.000E+00

     total cpu time spent up to now is       28.2 secs

     total energy              =    -473.82427478 Ry
     estimated scf accuracy    <       0.00000030 Ry

     iteration #  4     ecut=    40.00 Ry     beta= 0.70
     Davidson diagonalization with overlap
     ethr =  8.40E-10,  avg # of iterations =  2.1

     negative rho (up, down):  5.666E-07 0.000E+00

     total cpu time spent up to now is       29.1 secs

     total energy              =    -473.82427484 Ry
     estimated scf accuracy    <       0.00000012 Ry

     iteration #  5     ecut=    40.00 Ry     beta= 0.70
     Davidson diagonalization with overlap
     ethr =  3.36E-10,  avg # of iterations =  2.0

     negative rho (up, down):  5.618E-07 0.000E+00

     total cpu time spent up to now is       30.1 secs

     total energy              =    -473.82427486 Ry
     estimated scf accuracy    <          8.0E-09 Ry

     iteration #  6     ecut=    40.00 Ry     beta= 0.70
     Davidson diagonalization with overlap
     ethr =  2.21E-11,  avg # of iterations =  4.9

     negative rho (up, down):  5.609E-07 0.000E+00

     total cpu time spent up to now is       31.2 secs

     End of self-consistent calculation

          k = 0.0000 0.0000 0.0000 ( 11947 PWs)   bands (ev):

    -8.7233  -7.0437  -4.4323  -2.8701  -2.8701  -2.8701  -2.8351  -2.8351
    -2.8351  -1.4744  -1.4744  -1.4744  -1.3082  -0.9488  -0.9488  -0.9488
     1.3234   1.3234   1.3234   1.5499   1.5499   1.5499

          k = 0.0000 0.1050 0.0000 ( 11959 PWs)   bands (ev):

    -8.6737  -6.9944  -4.3832  -3.8506  -3.3264  -3.3264  -2.2886  -2.2886
    -2.2320  -1.7809  -1.7430  -1.7430  -1.2614  -0.5979  -0.5979  -0.1777
     0.5511   0.9796   0.9796   1.9904   1.9904   2.2181

          k = 0.0000 0.2099 0.0000 ( 11987 PWs)   bands (ev):

    -8.5250  -6.8468  -4.7623  -4.2360  -3.7070  -3.7070  -3.1206  -2.0907
    -2.0907  -1.6401  -1.6401  -1.1211  -0.8462  -0.2665  -0.0390  -0.0390
     0.6879   0.6879   1.1313   2.3579   2.4934   2.5963

          k = 0.0000 0.3149 0.0000 ( 12001 PWs)   bands (ev):

    -8.2775  -6.6012  -5.5840  -3.9936  -3.9936  -3.9913  -3.9314  -2.3651
    -2.3651  -1.3711  -0.9260  -0.9260  -0.8876   0.2089   0.2089   0.6979
     0.9223   0.9223   1.7232   2.3746   2.5888   3.0646

          k = 0.0000 0.4199 0.0000 ( 12029 PWs)   bands (ev):

    -7.9318  -6.3134  -6.2581  -4.6533  -4.1851  -4.1851  -3.6499  -2.5509
    -2.5509  -2.0645  -0.5610  -0.2981  -0.2981   0.2870   0.2870   0.9428
     1.6673   1.6673   2.0936   2.8077   2.8077   2.9051

          k = 0.0000 0.5249 0.0000 ( 12024 PWs)   bands (ev):

    -7.4885  -6.9487  -5.8184  -5.2830  -4.2809  -4.2809  -3.2132  -2.6833
    -2.6444  -2.6444  -0.1740  -0.1740  -0.1424   0.3655   0.9729   0.9729
     1.9407   1.9407   2.5065   2.5065   3.0460   3.0460

          k = 0.0909 0.1575 0.0000 ( 11973 PWs)   bands (ev):

    -8.5745  -6.8960  -4.2851  -4.2814  -4.2814  -2.7291  -2.6914  -2.6489
    -2.6489  -1.3367  -1.2050  -1.2050  -1.1679  -0.8057  -0.0648  -0.0648
     0.6477   0.6477   1.4576   1.6751   2.3114   2.8675

          k = 0.0909 0.2624 0.0000 ( 12007 PWs)   bands (ev):

    -8.3764  -6.6994  -5.1483  -4.6177  -4.0891  -3.5009  -3.0408  -2.9778
    -2.0055  -1.4638  -0.9875  -0.9810  -0.7086  -0.3169  -0.1258   0.1571
     1.2417   1.2685   1.7415   2.1565   2.2213   2.4968

          k = 0.0909 0.3674 0.0000 ( 12009 PWs)   bands (ev):

    -8.0798  -6.4050  -5.9239  -4.8585  -4.2676  -3.7960  -3.2775  -3.2144
    -1.6896  -1.6689  -1.2188  -0.7107  -0.7009   0.3737   0.4358   1.0713
     1.1660   1.6152   2.0088   2.4247   2.6164   2.7712

          k = 0.0909 0.4724 0.0000 ( 12034 PWs)   bands (ev):

    -7.6853  -6.6062  -6.0136  -5.0032  -4.9435  -3.4199  -3.4069  -3.3568
    -2.3487  -1.8012  -0.8139  -0.3704  -0.3282   0.6841   0.7057   1.2454
     1.3985   1.8357   2.2466   2.7653   2.8981   3.1234

          k = 0.0909-0.5774 0.0000 ( 12046 PWs)   bands (ev):

    -7.1938  -7.1938  -5.5260  -5.5260  -5.0515  -3.4675  -3.4044  -2.9235
    -2.9235  -1.8461  -0.8533   0.1356   0.1356   0.2994   0.6173   1.1453
     1.8676   2.0502   2.3094   2.5174   2.7459   3.4658

          k = 0.1818 0.3149 0.0000 ( 12023 PWs)   bands (ev):

    -8.1292  -6.4541  -5.4386  -5.4386  -3.8448  -3.7874  -3.7874  -2.3065
    -2.2621  -1.2306  -1.2306  -0.9259  -0.7475  -0.3787   0.8362   0.8362
     1.8399   1.8602   1.8602   1.9145   2.5097   2.5097

          k = 0.1818 0.4199 0.0000 ( 12032 PWs)   bands (ev):

    -7.7839  -6.1672  -6.1114  -5.6324  -4.5085  -3.9790  -3.5040  -2.4719
    -1.9220  -1.4417  -1.4073  -0.9107  -0.4212   0.2381   1.0802   1.3835
     1.4360   1.8937   1.9354   2.2319   2.9233   3.0399

          k = 0.1818-0.6298 0.0000 ( 12040 PWs)   bands (ev):

    -7.3411  -6.8018  -5.7295  -5.6721  -5.1373  -4.0750  -3.0681  -2.5655
    -2.5393  -1.4977  -0.9764  -0.5216  -0.0029   0.4529   0.5043   1.0626
     1.4836   1.6615   2.5091   2.6437   3.4119   3.4276

          k = 0.2727-0.6823 0.0000 ( 12043 PWs)   bands (ev):

    -7.3902  -6.3134  -6.3133  -5.7208  -4.6532  -4.6532  -3.1164  -2.0627
    -2.0627  -1.6041  -1.5536  -0.2604  -0.0492   0.3192   0.4342   0.9596
     0.9596   1.9145   2.9492   2.9775   3.0394   3.0394

          k = 0.2727-0.5774 0.0000 ( 12029 PWs)   bands (ev):

    -6.8997  -6.8997  -6.3621  -5.2344  -5.2344  -4.7015  -2.6349  -2.6349
    -2.1098  -1.6256  -0.6256  -0.5844  -0.1354   0.4134   0.4134   0.9145
     0.9169   1.2224   2.8396   3.6560   3.7153   3.7535

     the Fermi energy is     1.8519 ev

!    total energy              =    -473.82427486 Ry
     total all-electron energy =     -5827.537654 Ry
     estimated scf accuracy    <          7.4E-10 Ry
     smearing contrib. (-TS)   =      -0.00053248 Ry
     internal energy E=F+TS    =    -473.82374238 Ry

     The total energy is F=E-TS. E is the sum of the following terms:
     one-electron contribution =    -170.17270269 Ry
     hartree contribution      =      96.03534526 Ry
     xc contribution           =     -30.41136315 Ry
     ewald contribution        =      46.86438724 Ry
     one-center paw contrib.   =    -416.13940904 Ry

     convergence has been achieved in   6 iterations

     negative rho (up, down):  5.609E-07 0.000E+00

     Forces acting on atoms (cartesian axes, Ry/au):

     atom    1 type  1   force =     0.00000000    0.00000000    0.00161055
     atom    2 type  1   force =    -0.00000000    0.00000000    0.00161055
     atom    3 type  1   force =     0.00000000   -0.00000000    0.00161055
     atom    4 type  1   force =     0.00000000    0.00000000    0.00161052
     atom    5 type  1   force =     0.00000000   -0.00000018   -0.00018679
     atom    6 type  1   force =    -0.00000000    0.00000000   -0.00018687
     atom    7 type  1   force =     0.00000016    0.00000009   -0.00018679
     atom    8 type  1   force =    -0.00000016    0.00000009   -0.00018679
     atom    9 type  1   force =     0.00000000    0.00000000   -0.00142385
     atom   10 type  1   force =     0.00000000   -0.00000012   -0.00142370
     atom   11 type  1   force =    -0.00000011    0.00000006   -0.00142370
     atom   12 type  1   force =     0.00000011    0.00000006   -0.00142370

     Total force =     0.002872     Total SCF correction =     0.000028
     Energy error            =      1.0E-05 Ry
     Gradient error          =      1.4E-03 Ry/Bohr

     number of scf cycles    =   3
     number of bfgs steps    =   2

     energy             old  =    -473.8242646077 Ry
     energy             new  =    -473.8242748606 Ry

     CASE: energy            _new < energy            _old

     new trust radius        =       0.0026095578 bohr
     new conv_thr            =       0.0000000010 Ry


ATOMIC_POSITIONS (angstrom)
Al            1.4318910000        0.8267030000        0.0000000000    0   0   0
Al            4.2956740000        0.8267030000        0.0000000000    0   0   0
Al            2.8637820000        3.3068110000        0.0000000000    0   0   0
Al            5.7275650000        3.3068110000        0.0000000000    0   0   0
Al           -0.0000000000        1.6534062017        2.3381241225
Al            2.8637820000        1.6534060000        2.3381238159
Al            1.4318908253        4.1335138991        2.3381241225
Al            4.2956741747        4.1335138991        2.3381241225
Al           -0.0000000000       -0.0000000000        4.6733989465
Al            2.8637820000        0.0000012585        4.6733985491
Al            1.4318920899        2.4801073707        4.6733985491
Al            4.2956729101        2.4801073707        4.6733985491



     Writing config-only to output data dir ./output/pwscf.save/
     NEW-OLD atomic charge density approx. for the potential

     negative rho (up, down):  6.388E-07 0.000E+00

     total cpu time spent up to now is       31.9 secs

     Self-consistent Calculation

     iteration #  1     ecut=    40.00 Ry     beta= 0.70
     Davidson diagonalization with overlap
     ethr =  1.00E-06,  avg # of iterations =  2.0

     Threshold (ethr) on eigenvalues was too large:
     Diagonalizing with lowered threshold

     Davidson diagonalization with overlap
     ethr =  1.29E-09,  avg # of iterations =  6.6

     negative rho (up, down):  5.807E-07 0.000E+00

     total cpu time spent up to now is       34.0 secs

     total energy              =    -473.82428783 Ry
     estimated scf accuracy    <       0.00000221 Ry

     iteration #  2     ecut=    40.00 Ry     beta= 0.70
     Davidson diagonalization with overlap
     ethr =  6.13E-09,  avg # of iterations =  3.9

     negative rho (up, down):  5.771E-07 0.000E+00

     total cpu time spent up to now is       35.0 secs

     total energy              =    -473.82428539 Ry
     estimated scf accuracy    <       0.00003596 Ry

     iteration #  3     ecut=    40.00 Ry     beta= 0.70
     Davidson diagonalization with overlap
     ethr =  6.13E-09,  avg # of iterations =  4.6

     negative rho (up, down):  5.733E-07 0.000E+00

     total cpu time spent up to now is       36.2 secs

     total energy              =    -473.82428909 Ry
     estimated scf accuracy    <       0.00000062 Ry

     iteration #  4     ecut=    40.00 Ry     beta= 0.70
     Davidson diagonalization with overlap
     ethr =  1.73E-09,  avg # of iterations =  4.6

     negative rho (up, down):  5.691E-07 0.000E+00

     total cpu time spent up to now is       37.2 secs

     total energy              =    -473.82428912 Ry
     estimated scf accuracy    <       0.00000261 Ry

     iteration #  5     ecut=    40.00 Ry     beta= 0.70
     Davidson diagonalization with overlap
     ethr =  1.73E-09,  avg # of iterations =  2.8

     negative rho (up, down):  5.599E-07 0.000E+00

     total cpu time spent up to now is       38.2 secs

     total energy              =    -473.82428927 Ry
     estimated scf accuracy    <       0.00000002 Ry

     iteration #  6     ecut=    40.00 Ry     beta= 0.70
     Davidson diagonalization with overlap
     ethr =  6.22E-11,  avg # of iterations =  5.8

     negative rho (up, down):  5.593E-07 0.000E+00

     total cpu time spent up to now is       39.3 secs

     total energy              =    -473.82428928 Ry
     estimated scf accuracy    <       0.00000003 Ry

     iteration #  7     ecut=    40.00 Ry     beta= 0.70
     Davidson diagonalization with overlap
     ethr =  6.22E-11,  avg # of iterations =  1.0

     negative rho (up, down):  5.588E-07 0.000E+00

     total cpu time spent up to now is       40.3 secs

     total energy              =    -473.82428928 Ry
     estimated scf accuracy    <          2.5E-09 Ry

     iteration #  8     ecut=    40.00 Ry     beta= 0.70
     Davidson diagonalization with overlap
     ethr =  6.96E-12,  avg # of iterations =  5.1

     negative rho (up, down):  5.587E-07 0.000E+00

     total cpu time spent up to now is       41.3 secs

     total energy              =    -473.82428929 Ry
     estimated scf accuracy    <          1.7E-09 Ry

     iteration #  9     ecut=    40.00 Ry     beta= 0.70
     Davidson diagonalization with overlap
     ethr =  4.72E-12,  avg # of iterations =  1.0

     negative rho (up, down):  5.587E-07 0.000E+00

     total cpu time spent up to now is       42.2 secs

     End of self-consistent calculation

          k = 0.0000 0.0000 0.0000 ( 11947 PWs)   bands (ev):

    -8.7251  -7.0446  -4.4314  -2.8719  -2.8719  -2.8719  -2.8369  -2.8369
    -2.8369  -1.4755  -1.4755  -1.4755  -1.3077  -0.9497  -0.9496  -0.9496
     1.3241   1.3241   1.3241   1.5508   1.5508   1.5508

          k = 0.0000 0.1050 0.0000 ( 11959 PWs)   bands (ev):

    -8.6755  -6.9953  -4.3823  -3.8524  -3.3282  -3.3282  -2.2905  -2.2905
    -2.2330  -1.7827  -1.7440  -1.7440  -1.2610  -0.5988  -0.5988  -0.1784
     0.5517   0.9804   0.9804   1.9912   1.9912   2.2199

          k = 0.0000 0.2099 0.0000 ( 11987 PWs)   bands (ev):

    -8.5268  -6.8477  -4.7641  -4.2351  -3.7088  -3.7088  -3.1216  -2.0917
    -2.0917  -1.6419  -1.6419  -1.1207  -0.8469  -0.2668  -0.0398  -0.0398
     0.6885   0.6885   1.1304   2.3596   2.4937   2.5970

          k = 0.0000 0.3149 0.0000 ( 12001 PWs)   bands (ev):

    -8.2793  -6.6021  -5.5858  -3.9954  -3.9954  -3.9904  -3.9323  -2.3661
    -2.3661  -1.3703  -0.9277  -0.9277  -0.8871   0.2093   0.2093   0.6963
     0.9217   0.9217   1.7234   2.3737   2.5905   3.0647

          k = 0.0000 0.4199 0.0000 ( 12029 PWs)   bands (ev):

    -7.9335  -6.3152  -6.2590  -4.6543  -4.1869  -4.1869  -3.6490  -2.5518
    -2.5518  -2.0637  -0.5606  -0.2988  -0.2988   0.2866   0.2866   0.9431
     1.6664   1.6664   2.0919   2.8068   2.8068   2.9068

          k = 0.0000 0.5249 0.0000 ( 12024 PWs)   bands (ev):

    -7.4903  -6.9505  -5.8193  -5.2839  -4.2827  -4.2827  -3.2123  -2.6824
    -2.6453  -2.6453  -0.1735  -0.1735  -0.1420   0.3659   0.9713   0.9713
     1.9390   1.9390   2.5055   2.5055   3.0462   3.0462

          k = 0.0909 0.1575 0.0000 ( 11973 PWs)   bands (ev):

    -8.5763  -6.8969  -4.2842  -4.2833  -4.2832  -2.7309  -2.6932  -2.6499
    -2.6499  -1.3378  -1.2067  -1.2067  -1.1675  -0.8065  -0.0643  -0.0643
     0.6470   0.6470   1.4584   1.6759   2.3131   2.8678

          k = 0.0909 0.2624 0.0000 ( 12007 PWs)   bands (ev):

    -8.3782  -6.7003  -5.1501  -4.6195  -4.0882  -3.5019  -3.0426  -2.9788
    -2.0073  -1.4648  -0.9869  -0.9805  -0.7093  -0.3178  -0.1261   0.1555
     1.2425   1.2676   1.7406   2.1568   2.2220   2.4986

          k = 0.0909 0.3674 0.0000 ( 12009 PWs)   bands (ev):

    -8.0816  -6.4060  -5.9257  -4.8603  -4.2686  -3.7951  -3.2793  -3.2154
    -1.6888  -1.6699  -1.2206  -0.7101  -0.7005   0.3730   0.4343   1.0718
     1.1655   1.6143   2.0079   2.4250   2.6156   2.7729

          k = 0.0909 0.4724 0.0000 ( 12034 PWs)   bands (ev):

    -7.6871  -6.6080  -6.0145  -5.0050  -4.9444  -3.4217  -3.4061  -3.3578
    -2.3479  -1.8022  -0.8132  -0.3721  -0.3278   0.6845   0.7060   1.2438
     1.3975   1.8343   2.2467   2.7636   2.8972   3.1250

          k = 0.0909-0.5774 0.0000 ( 12046 PWs)   bands (ev):

    -7.1956  -7.1956  -5.5270  -5.5270  -5.0533  -3.4693  -3.4054  -2.9227
    -2.9226  -1.8471  -0.8525   0.1360   0.1360   0.2987   0.6155   1.1448
     1.8668   2.0491   2.3077   2.5167   2.7453   3.4668

          k = 0.1818 0.3149 0.0000 ( 12023 PWs)   bands (ev):

    -8.1310  -6.4550  -5.4404  -5.4404  -3.8439  -3.7884  -3.7884  -2.3083
    -2.2639  -1.2299  -1.2299  -0.9271  -0.7471  -0.3795   0.8346   0.8346
     1.8406   1.8604   1.8604   1.9147   2.5087   2.5087

          k = 0.1818 0.4199 0.0000 ( 12032 PWs)   bands (ev):

    -7.7856  -6.1690  -6.1123  -5.6342  -4.5094  -3.9800  -3.5031  -2.4737
    -1.9212  -1.4436  -1.4064  -0.9117  -0.4208   0.2373   1.0805   1.3825
     1.4354   1.8928   1.9354   2.2302   2.9238   3.0416

          k = 0.1818-0.6298 0.0000 ( 12040 PWs)   bands (ev):

    -7.3429  -6.8036  -5.7313  -5.6730  -5.1383  -4.0759  -3.0672  -2.5673
    -2.5385  -1.4969  -0.9775  -0.5234  -0.0025   0.4511   0.5047   1.0618
     1.4838   1.6615   2.5088   2.6420   3.4134   3.4266

          k = 0.2727-0.6823 0.0000 ( 12043 PWs)   bands (ev):

    -7.3920  -6.3151  -6.3151  -5.7217  -4.6542  -4.6542  -3.1155  -2.0619
    -2.0619  -1.6059  -1.5555  -0.2616  -0.0488   0.3183   0.4325   0.9599
     0.9599   1.9140   2.9495   2.9784   3.0377   3.0377

          k = 0.2727-0.5774 0.0000 ( 12029 PWs)   bands (ev):

    -6.9015  -6.9015  -6.3639  -5.2353  -5.2353  -4.7025  -2.6341  -2.6341
    -2.1090  -1.6274  -0.6274  -0.5862  -0.1366   0.4138   0.4138   0.9136
     0.9172   1.2217   2.8404   3.6568   3.7162   3.7527

     the Fermi energy is     1.8514 ev

!    total energy              =    -473.82428929 Ry
     total all-electron energy =     -5827.537668 Ry
     estimated scf accuracy    <          2.9E-10 Ry
     smearing contrib. (-TS)   =      -0.00053156 Ry
     internal energy E=F+TS    =    -473.82375772 Ry

     The total energy is F=E-TS. E is the sum of the following terms:
     one-electron contribution =    -170.26601270 Ry
     hartree contribution      =      96.08182950 Ry
     xc contribution           =     -30.41259010 Ry
     ewald contribution        =      46.91264363 Ry
     one-center paw contrib.   =    -416.13962806 Ry

     convergence has been achieved in   9 iterations

     negative rho (up, down):  5.587E-07 0.000E+00

     Forces acting on atoms (cartesian axes, Ry/au):

     atom    1 type  1   force =    -0.00000000   -0.00000000    0.00161364
     atom    2 type  1   force =     0.00000000   -0.00000000    0.00161364
     atom    3 type  1   force =     0.00000000    0.00000000    0.00161364
     atom    4 type  1   force =     0.00000000    0.00000000    0.00161365
     atom    5 type  1   force =    -0.00000000   -0.00000018   -0.00031647
     atom    6 type  1   force =     0.00000000    0.00000000   -0.00031655
     atom    7 type  1   force =     0.00000016    0.00000009   -0.00031647
     atom    8 type  1   force =    -0.00000016    0.00000009   -0.00031647
     atom    9 type  1   force =     0.00000000    0.00000000   -0.00129722
     atom   10 type  1   force =     0.00000000   -0.00000034   -0.00129713
     atom   11 type  1   force =    -0.00000029    0.00000017   -0.00129713
     atom   12 type  1   force =     0.00000029    0.00000017   -0.00129713

     Total force =     0.002670     Total SCF correction =     0.000021
     Energy error            =      1.4E-05 Ry
     Gradient error          =      1.3E-03 Ry/Bohr

     number of scf cycles    =   4
     number of bfgs steps    =   3

     energy             old  =    -473.8242748606 Ry
     energy             new  =    -473.8242892850 Ry

     CASE: energy            _new < energy            _old

     new trust radius        =       0.0039143367 bohr
     new conv_thr            =       0.0000000010 Ry


ATOMIC_POSITIONS (angstrom)
Al            1.4318910000        0.8267030000        0.0000000000    0   0   0
Al            4.2956740000        0.8267030000        0.0000000000    0   0   0
Al            2.8637820000        3.3068110000        0.0000000000    0   0   0
Al            5.7275650000        3.3068110000        0.0000000000    0   0   0
Al           -0.0000000000        1.6534061849        2.3378389028
Al            2.8637820000        1.6534060000        2.3378383837
Al            1.4318908398        4.1335139075        2.3378389028
Al            4.2956741602        4.1335139075        2.3378389028
Al           -0.0000000000        0.0000000000        4.6713278916
Al            2.8637820000        0.0000017955        4.6713271714
Al            1.4318925550        2.4801071022        4.6713271714
Al            4.2956724450        2.4801071022        4.6713271714



     Writing config-only to output data dir ./output/pwscf.save/
     NEW-OLD atomic charge density approx. for the potential

     negative rho (up, down):  6.830E-07 0.000E+00

     total cpu time spent up to now is       42.9 secs

     Self-consistent Calculation

     iteration #  1     ecut=    40.00 Ry     beta= 0.70
     Davidson diagonalization with overlap
     ethr =  1.00E-06,  avg # of iterations =  2.0

     Threshold (ethr) on eigenvalues was too large:
     Diagonalizing with lowered threshold

     Davidson diagonalization with overlap
     ethr =  3.29E-09,  avg # of iterations =  6.5

     negative rho (up, down):  5.891E-07 0.000E+00

     total cpu time spent up to now is       45.0 secs

     total energy              =    -473.82430544 Ry
     estimated scf accuracy    <       0.00000548 Ry

     iteration #  2     ecut=    40.00 Ry     beta= 0.70
     Davidson diagonalization with overlap
     ethr =  1.52E-08,  avg # of iterations =  3.8

     negative rho (up, down):  5.831E-07 0.000E+00

     total cpu time spent up to now is       46.1 secs

     total energy              =    -473.82429946 Ry
     estimated scf accuracy    <       0.00008954 Ry

     iteration #  3     ecut=    40.00 Ry     beta= 0.70
     Davidson diagonalization with overlap
     ethr =  1.52E-08,  avg # of iterations =  4.7

     negative rho (up, down):  5.750E-07 0.000E+00

     total cpu time spent up to now is       47.2 secs

     total energy              =    -473.82430879 Ry
     estimated scf accuracy    <       0.00000075 Ry

     iteration #  4     ecut=    40.00 Ry     beta= 0.70
     Davidson diagonalization with overlap
     ethr =  2.07E-09,  avg # of iterations =  5.3

     negative rho (up, down):  5.708E-07 0.000E+00

     total cpu time spent up to now is       48.4 secs

     total energy              =    -473.82430874 Ry
     estimated scf accuracy    <       0.00000542 Ry

     iteration #  5     ecut=    40.00 Ry     beta= 0.70
     Davidson diagonalization with overlap
     ethr =  2.07E-09,  avg # of iterations =  3.4

     negative rho (up, down):  5.573E-07 0.000E+00

     total cpu time spent up to now is       49.4 secs

     total energy              =    -473.82430907 Ry
     estimated scf accuracy    <       0.00000005 Ry

     iteration #  6     ecut=    40.00 Ry     beta= 0.70
     Davidson diagonalization with overlap
     ethr =  1.26E-10,  avg # of iterations =  5.1

     negative rho (up, down):  5.557E-07 0.000E+00

     total cpu time spent up to now is       50.5 secs

     total energy              =    -473.82430909 Ry
     estimated scf accuracy    <       0.00000003 Ry

     iteration #  7     ecut=    40.00 Ry     beta= 0.70
     Davidson diagonalization with overlap
     ethr =  8.78E-11,  avg # of iterations =  1.4

     negative rho (up, down):  5.554E-07 0.000E+00

     total cpu time spent up to now is       51.4 secs

     End of self-consistent calculation

          k = 0.0000 0.0000 0.0000 ( 11947 PWs)   bands (ev):

    -8.7277  -7.0459  -4.4301  -2.8747  -2.8746  -2.8746  -2.8397  -2.8397
    -2.8397  -1.4772  -1.4771  -1.4771  -1.3071  -0.9509  -0.9509  -0.9509
     1.3253   1.3253   1.3253   1.5522   1.5522   1.5522

          k = 0.0000 0.1050 0.0000 ( 11959 PWs)   bands (ev):

    -8.6781  -6.9967  -4.3810  -3.8551  -3.3310  -3.3310  -2.2932  -2.2932
    -2.2345  -1.7854  -1.7456  -1.7456  -1.2603  -0.6001  -0.6001  -0.1795
     0.5526   0.9815   0.9815   1.9925   1.9925   2.2225

          k = 0.0000 0.2099 0.0000 ( 11987 PWs)   bands (ev):

    -8.5294  -6.8491  -4.7668  -4.2338  -3.7116  -3.7116  -3.1231  -2.0932
    -2.0932  -1.6446  -1.6446  -1.1201  -0.8479  -0.2673  -0.0408  -0.0408
     0.6894   0.6894   1.1290   2.3622   2.4941   2.5981

          k = 0.0000 0.3149 0.0000 ( 12001 PWs)   bands (ev):

    -8.2820  -6.6035  -5.5885  -3.9981  -3.9981  -3.9891  -3.9338  -2.3675
    -2.3675  -1.3692  -0.9303  -0.9303  -0.8865   0.2099   0.2099   0.6938
     0.9207   0.9207   1.7237   2.3723   2.5931   3.0648

          k = 0.0000 0.4199 0.0000 ( 12029 PWs)   bands (ev):

    -7.9362  -6.3179  -6.2604  -4.6557  -4.1896  -4.1896  -3.6477  -2.5533
    -2.5533  -2.0624  -0.5600  -0.2999  -0.2999   0.2860   0.2860   0.9435
     1.6650   1.6650   2.0894   2.8055   2.8055   2.9093

          k = 0.0000 0.5249 0.0000 ( 12024 PWs)   bands (ev):

    -7.4930  -6.9532  -5.8207  -5.2853  -4.2855  -4.2855  -3.2110  -2.6812
    -2.6468  -2.6468  -0.1727  -0.1727  -0.1414   0.3665   0.9689   0.9689
     1.9365   1.9365   2.5039   2.5039   3.0465   3.0465

          k = 0.0909 0.1575 0.0000 ( 11973 PWs)   bands (ev):

    -8.5790  -6.8983  -4.2860  -4.2860  -4.2828  -2.7336  -2.6960  -2.6514
    -2.6514  -1.3395  -1.2093  -1.2093  -1.1668  -0.8077  -0.0637  -0.0637
     0.6461   0.6461   1.4595   1.6772   2.3158   2.8682

          k = 0.0909 0.2624 0.0000 ( 12007 PWs)   bands (ev):

    -8.3809  -6.7017  -5.1528  -4.6223  -4.0869  -3.5033  -3.0454  -2.9803
    -2.0100  -1.4664  -0.9861  -0.9799  -0.7104  -0.3191  -0.1266   0.1532
     1.2436   1.2662   1.7392   2.1572   2.2230   2.5012

          k = 0.0909 0.3674 0.0000 ( 12009 PWs)   bands (ev):

    -8.0843  -6.4073  -5.9284  -4.8630  -4.2700  -3.7938  -3.2821  -3.2168
    -1.6876  -1.6714  -1.2234  -0.7093  -0.6999   0.3719   0.4319   1.0725
     1.1646   1.6130   2.0065   2.4253   2.6144   2.7755

          k = 0.0909 0.4724 0.0000 ( 12034 PWs)   bands (ev):

    -7.6898  -6.6107  -6.0159  -5.0077  -4.9458  -3.4245  -3.4048  -3.3592
    -2.3466  -1.8037  -0.8121  -0.3747  -0.3272   0.6850   0.7063   1.2413
     1.3961   1.8322   2.2468   2.7611   2.8957   3.1274

          k = 0.0909-0.5774 0.0000 ( 12046 PWs)   bands (ev):

    -7.1983  -7.1983  -5.5283  -5.5283  -5.0560  -3.4720  -3.4068  -2.9214
    -2.9214  -1.8486  -0.8514   0.1366   0.1366   0.2977   0.6128   1.1442
     1.8655   2.0474   2.3050   2.5157   2.7443   3.4682

          k = 0.1818 0.3149 0.0000 ( 12023 PWs)   bands (ev):

    -8.1337  -6.4563  -5.4431  -5.4431  -3.8426  -3.7898  -3.7898  -2.3110
    -2.2667  -1.2287  -1.2287  -0.9288  -0.7465  -0.3807   0.8321   0.8321
     1.8417   1.8607   1.8607   1.9150   2.5073   2.5073

          k = 0.1818 0.4199 0.0000 ( 12032 PWs)   bands (ev):

    -7.7883  -6.1717  -6.1137  -5.6370  -4.5108  -3.9814  -3.5018  -2.4764
    -1.9199  -1.4463  -1.4053  -0.9133  -0.4202   0.2359   1.0809   1.3809
     1.4345   1.8915   1.9355   2.2277   2.9245   3.0441

          k = 0.1818-0.6298 0.0000 ( 12040 PWs)   bands (ev):

    -7.3455  -6.8063  -5.7340  -5.6744  -5.1397  -4.0774  -3.0659  -2.5700
    -2.5372  -1.4957  -0.9790  -0.5262  -0.0020   0.4485   0.5052   1.0605
     1.4841   1.6616   2.5084   2.6395   3.4156   3.4251

          k = 0.2727-0.6823 0.0000 ( 12043 PWs)   bands (ev):

    -7.3947  -6.3178  -6.3178  -5.7231  -4.6556  -4.6556  -3.1142  -2.0607
    -2.0607  -1.6086  -1.5583  -0.2634  -0.0482   0.3171   0.4298   0.9604
     0.9604   1.9133   2.9500   2.9798   3.0352   3.0352

          k = 0.2727-0.5774 0.0000 ( 12029 PWs)   bands (ev):

    -6.9042  -6.9042  -6.3666  -5.2367  -5.2367  -4.7039  -2.6328  -2.6328
    -2.1078  -1.6302  -0.6302  -0.5890  -0.1383   0.4143   0.4143   0.9121
     0.9177   1.2206   2.8415   3.6579   3.7175   3.7515

     the Fermi energy is     1.8508 ev

!    total energy              =    -473.82430909 Ry
     total all-electron energy =     -5827.537688 Ry
     estimated scf accuracy    <          4.0E-10 Ry
     smearing contrib. (-TS)   =      -0.00052978 Ry
     internal energy E=F+TS    =    -473.82377931 Ry

     The total energy is F=E-TS. E is the sum of the following terms:
     one-electron contribution =    -170.40618788 Ry
     hartree contribution      =      96.15174554 Ry
     xc contribution           =     -30.41443450 Ry
     ewald contribution        =      46.98505409 Ry
     one-center paw contrib.   =    -416.13995655 Ry

     convergence has been achieved in   7 iterations

     negative rho (up, down):  5.554E-07 0.000E+00

     Forces acting on atoms (cartesian axes, Ry/au):

     atom    1 type  1   force =     0.00000004    0.00000003    0.00160424
     atom    2 type  1   force =    -0.00000004    0.00000003    0.00160424
     atom    3 type  1   force =    -0.00000000   -0.00000005    0.00160424
     atom    4 type  1   force =    -0.00000000    0.00000000    0.00160424
     atom    5 type  1   force =    -0.00000000   -0.00000013   -0.00048275
     atom    6 type  1   force =     0.00000000    0.00000000   -0.00048286
     atom    7 type  1   force =     0.00000011    0.00000007   -0.00048275
     atom    8 type  1   force =    -0.00000011    0.00000007   -0.00048275
     atom    9 type  1   force =     0.00000000    0.00000000   -0.00112159
     atom   10 type  1   force =     0.00000000   -0.00000045   -0.00112142
     atom   11 type  1   force =    -0.00000039    0.00000023   -0.00112142
     atom   12 type  1   force =     0.00000039    0.00000023   -0.00112142

     Total force =     0.002442     Total SCF correction =     0.000026
     Energy error            =      2.0E-05 Ry
     Gradient error          =      1.1E-03 Ry/Bohr

     number of scf cycles    =   5
     number of bfgs steps    =   4

     energy             old  =    -473.8242892850 Ry
     energy             new  =    -473.8243090912 Ry

     CASE: energy            _new < energy            _old

     new trust radius        =       0.0058715050 bohr
     new conv_thr            =       0.0000000010 Ry


ATOMIC_POSITIONS (angstrom)
Al            1.4318910000        0.8267030000        0.0000000000    0   0   0
Al            4.2956740000        0.8267030000        0.0000000000    0   0   0
Al            2.8637820000        3.3068110000        0.0000000000    0   0   0
Al            5.7275650000        3.3068110000        0.0000000000    0   0   0
Al           -0.0000000000        1.6534062170        2.3372612666
Al            2.8637820000        1.6534060000        2.3372603865
Al            1.4318908121        4.1335138915        2.3372612666
Al            4.2956741879        4.1335138915        2.3372612666
Al           -0.0000000000        0.0000000000        4.6682212540
Al            2.8637820000        0.0000025508        4.6682201049
Al            1.4318932091        2.4801067246        4.6682201049
Al            4.2956717909        2.4801067246        4.6682201049



     Writing config-only to output data dir ./output/pwscf.save/
     NEW-OLD atomic charge density approx. for the potential

     negative rho (up, down):  7.889E-07 0.000E+00

     total cpu time spent up to now is       52.1 secs

     Self-consistent Calculation

     iteration #  1     ecut=    40.00 Ry     beta= 0.70
     Davidson diagonalization with overlap
     ethr =  1.00E-06,  avg # of iterations =  2.0

     Threshold (ethr) on eigenvalues was too large:
     Diagonalizing with lowered threshold

     Davidson diagonalization with overlap
     ethr =  5.21E-09,  avg # of iterations =  6.8

     negative rho (up, down):  6.023E-07 0.000E+00

     total cpu time spent up to now is       54.3 secs

     total energy              =    -473.82432646 Ry
     estimated scf accuracy    <       0.00001275 Ry

     iteration #  2     ecut=    40.00 Ry     beta= 0.70
     Davidson diagonalization with overlap
     ethr =  3.54E-08,  avg # of iterations =  4.2

     negative rho (up, down):  5.935E-07 0.000E+00

     total cpu time spent up to now is       55.4 secs

     total energy              =    -473.82430812 Ry
     estimated scf accuracy    <       0.00026685 Ry

     iteration #  3     ecut=    40.00 Ry     beta= 0.70
     Davidson diagonalization with overlap
     ethr =  3.54E-08,  avg # of iterations =  4.9

     negative rho (up, down):  5.896E-07 0.000E+00

     total cpu time spent up to now is       56.5 secs

     total energy              =    -473.82433137 Ry
     estimated scf accuracy    <       0.00004569 Ry

     iteration #  4     ecut=    40.00 Ry     beta= 0.70
     Davidson diagonalization with overlap
     ethr =  3.54E-08,  avg # of iterations =  2.3

     negative rho (up, down):  5.737E-07 0.000E+00

     total cpu time spent up to now is       57.5 secs

     total energy              =    -473.82433471 Ry
     estimated scf accuracy    <       0.00000069 Ry

     iteration #  5     ecut=    40.00 Ry     beta= 0.70
     Davidson diagonalization with overlap
     ethr =  1.93E-09,  avg # of iterations =  5.4

     negative rho (up, down):  5.529E-07 0.000E+00

     total cpu time spent up to now is       58.6 secs

     total energy              =    -473.82433505 Ry
     estimated scf accuracy    <       0.00000013 Ry

     iteration #  6     ecut=    40.00 Ry     beta= 0.70
     Davidson diagonalization with overlap
     ethr =  3.51E-10,  avg # of iterations =  2.5

     negative rho (up, down):  5.495E-07 0.000E+00

     total cpu time spent up to now is       59.5 secs

     total energy              =    -473.82433506 Ry
     estimated scf accuracy    <       0.00000003 Ry

     iteration #  7     ecut=    40.00 Ry     beta= 0.70
     Davidson diagonalization with overlap
     ethr =  7.52E-11,  avg # of iterations =  4.4

     negative rho (up, down):  5.494E-07 0.000E+00

     total cpu time spent up to now is       60.6 secs

     End of self-consistent calculation

          k = 0.0000 0.0000 0.0000 ( 11947 PWs)   bands (ev):

    -8.7318  -7.0480  -4.4281  -2.8788  -2.8788  -2.8788  -2.8439  -2.8439
    -2.8439  -1.4797  -1.4797  -1.4797  -1.3062  -0.9527  -0.9527  -0.9527
     1.3269   1.3269   1.3269   1.5542   1.5542   1.5542

          k = 0.0000 0.1050 0.0000 ( 11959 PWs)   bands (ev):

    -8.6822  -6.9988  -4.3790  -3.8593  -3.3351  -3.3351  -2.2974  -2.2974
    -2.2368  -1.7896  -1.7479  -1.7479  -1.2594  -0.6021  -0.6021  -0.1811
     0.5539   0.9833   0.9833   1.9943   1.9943   2.2264

          k = 0.0000 0.2099 0.0000 ( 11987 PWs)   bands (ev):

    -8.5335  -6.8512  -4.7710  -4.2319  -3.7158  -3.7158  -3.1253  -2.0955
    -2.0955  -1.6488  -1.6488  -1.1192  -0.8496  -0.2681  -0.0425  -0.0425
     0.6907   0.6907   1.1270   2.3661   2.4948   2.5997

          k = 0.0000 0.3149 0.0000 ( 12001 PWs)   bands (ev):

    -8.2861  -6.6056  -5.5927  -4.0023  -4.0023  -3.9872  -3.9360  -2.3698
    -2.3698  -1.3675  -0.9342  -0.9342  -0.8856   0.2107   0.2107   0.6899
     0.9192   0.9192   1.7242   2.3702   2.5970   3.0650

          k = 0.0000 0.4199 0.0000 ( 12029 PWs)   bands (ev):

    -7.9403  -6.3220  -6.2625  -4.6578  -4.1938  -4.1938  -3.6458  -2.5556
    -2.5556  -2.0606  -0.5591  -0.3015  -0.3015   0.2850   0.2850   0.9441
     1.6628   1.6628   2.0854   2.8034   2.8034   2.9131

          k = 0.0000 0.5249 0.0000 ( 12024 PWs)   bands (ev):

    -7.4971  -6.9573  -5.8228  -5.2874  -4.2896  -4.2896  -3.2091  -2.6793
    -2.6490  -2.6490  -0.1716  -0.1716  -0.1405   0.3673   0.9652   0.9652
     1.9327   1.9327   2.5015   2.5015   3.0470   3.0470

          k = 0.0909 0.1575 0.0000 ( 11973 PWs)   bands (ev):

    -8.5831  -6.9004  -4.2901  -4.2901  -4.2809  -2.7378  -2.7002  -2.6536
    -2.6536  -1.3421  -1.2133  -1.2133  -1.1659  -0.8095  -0.0629  -0.0628
     0.6446   0.6446   1.4611   1.6791   2.3197   2.8688

          k = 0.0909 0.2624 0.0000 ( 12007 PWs)   bands (ev):

    -8.3850  -6.7038  -5.1570  -4.6264  -4.0849  -3.5055  -3.0495  -2.9825
    -2.0142  -1.4687  -0.9848  -0.9790  -0.7120  -0.3211  -0.1275   0.1496
     1.2452   1.2641   1.7372   2.1577   2.2246   2.5050

          k = 0.0909 0.3674 0.0000 ( 12009 PWs)   bands (ev):

    -8.0884  -6.4094  -5.9325  -4.8672  -4.2721  -3.7919  -3.2862  -3.2190
    -1.6858  -1.6737  -1.2275  -0.7081  -0.6990   0.3702   0.4283   1.0735
     1.1632   1.6110   2.0044   2.4258   2.6126   2.7793

          k = 0.0909 0.4724 0.0000 ( 12034 PWs)   bands (ev):

    -7.6939  -6.6148  -6.0180  -5.0119  -4.9480  -3.4287  -3.4028  -3.3614
    -2.3447  -1.8060  -0.8105  -0.3786  -0.3263   0.6857   0.7067   1.2374
     1.3939   1.8290   2.2469   2.7572   2.8936   3.1310

          k = 0.0909-0.5774 0.0000 ( 12046 PWs)   bands (ev):

    -7.2024  -7.2024  -5.5305  -5.5305  -5.0602  -3.4762  -3.4090  -2.9195
    -2.9195  -1.8509  -0.8497   0.1374   0.1374   0.2960   0.6086   1.1431
     1.8636   2.0449   2.3009   2.5141   2.7427   3.4703

          k = 0.1818 0.3149 0.0000 ( 12023 PWs)   bands (ev):

    -8.1378  -6.4584  -5.4472  -5.4472  -3.8407  -3.7920  -3.7920  -2.3152
    -2.2710  -1.2271  -1.2271  -0.9314  -0.7456  -0.3826   0.8282   0.8282
     1.8432   1.8611   1.8611   1.9154   2.5052   2.5052

          k = 0.1818 0.4199 0.0000 ( 12032 PWs)   bands (ev):

    -7.7924  -6.1758  -6.1158  -5.6411  -4.5130  -3.9836  -3.4999  -2.4806
    -1.9181  -1.4505  -1.4035  -0.9158  -0.4193   0.2339   1.0815   1.3784
     1.4331   1.8895   1.9355   2.2237   2.9256   3.0478

          k = 0.1818-0.6298 0.0000 ( 12040 PWs)   bands (ev):

    -7.3497  -6.8104  -5.7381  -5.6765  -5.1418  -4.0795  -3.0640  -2.5742
    -2.5353  -1.4939  -0.9814  -0.5304  -0.0011   0.4446   0.5060   1.0586
     1.4846   1.6616   2.5077   2.6355   3.4188   3.4229

          k = 0.2727-0.6823 0.0000 ( 12043 PWs)   bands (ev):

    -7.3988  -6.3220  -6.3220  -5.7253  -4.6577  -4.6577  -3.1123  -2.0588
    -2.0588  -1.6128  -1.5625  -0.2661  -0.0474   0.3152   0.4257   0.9611
     0.9611   1.9121   2.9507   2.9818   3.0313   3.0313

          k = 0.2727-0.5774 0.0000 ( 12029 PWs)   bands (ev):

    -6.9083  -6.9083  -6.3707  -5.2388  -5.2388  -4.7060  -2.6309  -2.6309
    -2.1059  -1.6344  -0.6344  -0.5933  -0.1409   0.4151   0.4151   0.9100
     0.9185   1.2190   2.8432   3.6595   3.7195   3.7496

     the Fermi energy is     1.8498 ev

!    total energy              =    -473.82433507 Ry
     total all-electron energy =     -5827.537714 Ry
     estimated scf accuracy    <          1.9E-10 Ry
     smearing contrib. (-TS)   =      -0.00052622 Ry
     internal energy E=F+TS    =    -473.82380885 Ry

     The total energy is F=E-TS. E is the sum of the following terms:
     one-electron contribution =    -170.61664307 Ry
     hartree contribution      =      96.25676323 Ry
     xc contribution           =     -30.41720555 Ry
     ewald contribution        =      47.09372747 Ry
     one-center paw contrib.   =    -416.14045094 Ry

     convergence has been achieved in   7 iterations

     negative rho (up, down):  5.494E-07 0.000E+00

     Forces acting on atoms (cartesian axes, Ry/au):

     atom    1 type  1   force =    -0.00000009   -0.00000005    0.00157231
     atom    2 type  1   force =     0.00000009   -0.00000005    0.00157231
     atom    3 type  1   force =    -0.00000000    0.00000010    0.00157231
     atom    4 type  1   force =     0.00000000   -0.00000000    0.00157238
     atom    5 type  1   force =     0.00000000   -0.00000022   -0.00070219
     atom    6 type  1   force =     0.00000000    0.00000000   -0.00070219
     atom    7 type  1   force =     0.00000019    0.00000011   -0.00070219
     atom    8 type  1   force =    -0.00000019    0.00000011   -0.00070219
     atom    9 type  1   force =     0.00000000   -0.00000000   -0.00087032
     atom   10 type  1   force =     0.00000000   -0.00000063   -0.00087008
     atom   11 type  1   force =    -0.00000054    0.00000031   -0.00087008
     atom   12 type  1   force =     0.00000054    0.00000031   -0.00087008

     Total force =     0.002236     Total SCF correction =     0.000005
     Energy error            =      2.6E-05 Ry
     Gradient error          =      8.7E-04 Ry/Bohr

     number of scf cycles    =   6
     number of bfgs steps    =   5

     energy             old  =    -473.8243090912 Ry
     energy             new  =    -473.8243350680 Ry

     CASE: energy            _new < energy            _old

     new trust radius        =       0.0088072575 bohr
     new conv_thr            =       0.0000000010 Ry


ATOMIC_POSITIONS (angstrom)
Al            1.4318910000        0.8267030000        0.0000000000    0   0   0
Al            4.2956740000        0.8267030000        0.0000000000    0   0   0
Al            2.8637820000        3.3068110000        0.0000000000    0   0   0
Al            5.7275650000        3.3068110000        0.0000000000    0   0   0
Al           -0.0000000000        1.6534062110        2.3361620150
Al            2.8637820000        1.6534060000        2.3361606691
Al            1.4318908173        4.1335138945        2.3361620150
Al            4.2956741827        4.1335138945        2.3361620150
Al           -0.0000000000        0.0000000000        4.6635612401
Al            2.8637820000        0.0000035837        4.6635595050
Al            1.4318941035        2.4801062082        4.6635595050
Al            4.2956708965        2.4801062082        4.6635595050



     Writing config-only to output data dir ./output/pwscf.save/
     NEW-OLD atomic charge density approx. for the potential

     negative rho (up, down):  1.001E-06 0.000E+00

     total cpu time spent up to now is       61.3 secs

     Self-consistent Calculation

     iteration #  1     ecut=    40.00 Ry     beta= 0.70
     Davidson diagonalization with overlap
     ethr =  1.00E-06,  avg # of iterations =  2.8

     Threshold (ethr) on eigenvalues was too large:
     Diagonalizing with lowered threshold

     Davidson diagonalization with overlap
     ethr =  1.35E-08,  avg # of iterations =  5.6

     negative rho (up, down):  6.234E-07 0.000E+00

     total cpu time spent up to now is       63.4 secs

     total energy              =    -473.82434884 Ry
     estimated scf accuracy    <       0.00002618 Ry

     iteration #  2     ecut=    40.00 Ry     beta= 0.70
     Davidson diagonalization with overlap
     ethr =  7.27E-08,  avg # of iterations =  4.1

     negative rho (up, down):  6.093E-07 0.000E+00

     total cpu time spent up to now is       64.5 secs

     total energy              =    -473.82431270 Ry
     estimated scf accuracy    <       0.00052361 Ry

     iteration #  3     ecut=    40.00 Ry     beta= 0.70
     Davidson diagonalization with overlap
     ethr =  7.27E-08,  avg # of iterations =  5.0

     negative rho (up, down):  6.030E-07 0.000E+00

     total cpu time spent up to now is       65.6 secs

     total energy              =    -473.82435947 Ry
     estimated scf accuracy    <       0.00008436 Ry

     iteration #  4     ecut=    40.00 Ry     beta= 0.70
     Davidson diagonalization with overlap
     ethr =  7.27E-08,  avg # of iterations =  2.5

     negative rho (up, down):  5.745E-07 0.000E+00

     total cpu time spent up to now is       66.6 secs

     total energy              =    -473.82436575 Ry
     estimated scf accuracy    <       0.00000136 Ry

     iteration #  5     ecut=    40.00 Ry     beta= 0.70
     Davidson diagonalization with overlap
     ethr =  3.77E-09,  avg # of iterations =  4.9

     negative rho (up, down):  5.432E-07 0.000E+00

     total cpu time spent up to now is       67.7 secs

     total energy              =    -473.82436636 Ry
     estimated scf accuracy    <       0.00000025 Ry

     iteration #  6     ecut=    40.00 Ry     beta= 0.70
     Davidson diagonalization with overlap
     ethr =  7.02E-10,  avg # of iterations =  2.6

     negative rho (up, down):  5.385E-07 0.000E+00

     total cpu time spent up to now is       68.7 secs

     total energy              =    -473.82436638 Ry
     estimated scf accuracy    <       0.00000006 Ry

     iteration #  7     ecut=    40.00 Ry     beta= 0.70
     Davidson diagonalization with overlap
     ethr =  1.70E-10,  avg # of iterations =  4.1

     negative rho (up, down):  5.384E-07 0.000E+00

     total cpu time spent up to now is       69.8 secs

     End of self-consistent calculation

          k = 0.0000 0.0000 0.0000 ( 11947 PWs)   bands (ev):

    -8.7380  -7.0512  -4.4252  -2.8851  -2.8851  -2.8851  -2.8503  -2.8503
    -2.8503  -1.4836  -1.4836  -1.4836  -1.3048  -0.9555  -0.9555  -0.9555
     1.3294   1.3294   1.3294   1.5571   1.5571   1.5571

          k = 0.0000 0.1050 0.0000 ( 11959 PWs)   bands (ev):

    -8.6884  -7.0019  -4.3761  -3.8656  -3.3415  -3.3415  -2.3037  -2.3037
    -2.2402  -1.7959  -1.7515  -1.7515  -1.2580  -0.6051  -0.6051  -0.1837
     0.5559   0.9859   0.9859   1.9970   1.9970   2.2323

          k = 0.0000 0.2099 0.0000 ( 11987 PWs)   bands (ev):

    -8.5397  -6.8543  -4.7772  -4.2289  -3.7221  -3.7221  -3.1286  -2.0990
    -2.0990  -1.6551  -1.6551  -1.1178  -0.8522  -0.2693  -0.0450  -0.0450
     0.6926   0.6926   1.1238   2.3720   2.4957   2.6021

          k = 0.0000 0.3149 0.0000 ( 12001 PWs)   bands (ev):

    -8.2923  -6.6087  -5.5989  -4.0086  -4.0086  -3.9843  -3.9392  -2.3732
    -2.3732  -1.3650  -0.9402  -0.9402  -0.8843   0.2120   0.2120   0.6841
     0.9170   0.9170   1.7248   2.3669   2.6027   3.0652

          k = 0.0000 0.4199 0.0000 ( 12029 PWs)   bands (ev):

    -7.9465  -6.3282  -6.2657  -4.6611  -4.2001  -4.2001  -3.6429  -2.5589
    -2.5589  -2.0579  -0.5578  -0.3041  -0.3041   0.2836   0.2836   0.9450
     1.6596   1.6596   2.0795   2.8003   2.8003   2.9187

          k = 0.0000 0.5249 0.0000 ( 12024 PWs)   bands (ev):

    -7.5033  -6.9635  -5.8260  -5.2906  -4.2959  -4.2959  -3.2062  -2.6765
    -2.6524  -2.6524  -0.1701  -0.1701  -0.1393   0.3685   0.9595   0.9595
     1.9269   1.9269   2.4980   2.4980   3.0477   3.0477

          k = 0.0909 0.1575 0.0000 ( 11973 PWs)   bands (ev):

    -8.5893  -6.9035  -4.2964  -4.2964  -4.2780  -2.7440  -2.7066  -2.6570
    -2.6570  -1.3459  -1.2193  -1.2193  -1.1645  -0.8123  -0.0616  -0.0615
     0.6424   0.6424   1.4636   1.6819   2.3255   2.8697

          k = 0.0909 0.2624 0.0000 ( 12007 PWs)   bands (ev):

    -8.3912  -6.7069  -5.1632  -4.6327  -4.0820  -3.5088  -3.0559  -2.9858
    -2.0206  -1.4723  -0.9830  -0.9777  -0.7147  -0.3242  -0.1287   0.1441
     1.2477   1.2610   1.7340   2.1586   2.2268   2.5109

          k = 0.0909 0.3674 0.0000 ( 12009 PWs)   bands (ev):

    -8.0946  -6.4126  -5.9388  -4.8735  -4.2754  -3.7890  -3.2926  -3.2223
    -1.6831  -1.6772  -1.2338  -0.7063  -0.6976   0.3677   0.4228   1.0750
     1.1610   1.6080   2.0013   2.4265   2.6098   2.7850

          k = 0.0909 0.4724 0.0000 ( 12034 PWs)   bands (ev):

    -7.7001  -6.6211  -6.0212  -5.0182  -4.9512  -3.4350  -3.4000  -3.3648
    -2.3420  -1.8095  -0.8081  -0.3846  -0.3250   0.6869   0.7074   1.2316
     1.3905   1.8243   2.2471   2.7514   2.8903   3.1365

          k = 0.0909-0.5774 0.0000 ( 12046 PWs)   bands (ev):

    -7.2086  -7.2086  -5.5337  -5.5337  -5.0664  -3.4825  -3.4123  -2.9166
    -2.9166  -1.8544  -0.8473   0.1386   0.1386   0.2935   0.6023   1.1415
     1.8606   2.0411   2.2948   2.5117   2.7404   3.4733

          k = 0.1818 0.3149 0.0000 ( 12023 PWs)   bands (ev):

    -8.1440  -6.4616  -5.4535  -5.4535  -3.8378  -3.7953  -3.7953  -2.3215
    -2.2774  -1.2246  -1.2246  -0.9353  -0.7443  -0.3854   0.8224   0.8224
     1.8454   1.8617   1.8617   1.9159   2.5020   2.5020

          k = 0.1818 0.4199 0.0000 ( 12032 PWs)   bands (ev):

    -7.7986  -6.1820  -6.1189  -5.6473  -4.5162  -3.9869  -3.4970  -2.4870
    -1.9154  -1.4569  -1.4009  -0.9194  -0.4180   0.2308   1.0823   1.3746
     1.4309   1.8865   1.9355   2.2178   2.9272   3.0534

          k = 0.1818-0.6298 0.0000 ( 12040 PWs)   bands (ev):

    -7.3559  -6.8166  -5.7444  -5.6797  -5.1450  -4.0828  -3.0612  -2.5806
    -2.5325  -1.4912  -0.9850  -0.5367   0.0001   0.4386   0.5072   1.0556
     1.4853   1.6616   2.5066   2.6296   3.4194   3.4237

          k = 0.2727-0.6823 0.0000 ( 12043 PWs)   bands (ev):

    -7.4050  -6.3282  -6.3282  -5.7284  -4.6610  -4.6610  -3.1095  -2.0561
    -2.0561  -1.6191  -1.5690  -0.2702  -0.0461   0.3123   0.4195   0.9622
     0.9622   1.9104   2.9518   2.9849   3.0255   3.0255

          k = 0.2727-0.5774 0.0000 ( 12029 PWs)   bands (ev):

    -6.9145  -6.9145  -6.3770  -5.2421  -5.2420  -4.7093  -2.6281  -2.6281
    -2.1032  -1.6408  -0.6407  -0.5997  -0.1448   0.4163   0.4163   0.9067
     0.9196   1.2165   2.8456   3.6619   3.7224   3.7466

     the Fermi energy is     1.8483 ev

!    total energy              =    -473.82436640 Ry
     total all-electron energy =     -5827.537745 Ry
     estimated scf accuracy    <          8.5E-10 Ry
     smearing contrib. (-TS)   =      -0.00051914 Ry
     internal energy E=F+TS    =    -473.82384726 Ry

     The total energy is F=E-TS. E is the sum of the following terms:
     one-electron contribution =    -170.93239390 Ry
     hartree contribution      =      96.41423494 Ry
     xc contribution           =     -30.42136158 Ry
     ewald contribution        =      47.25686244 Ry
     one-center paw contrib.   =    -416.14118916 Ry

     convergence has been achieved in   7 iterations

     negative rho (up, down):  5.384E-07 0.000E+00

     Forces acting on atoms (cartesian axes, Ry/au):

     atom    1 type  1   force =    -0.00000003   -0.00000002    0.00149577
     atom    2 type  1   force =     0.00000003   -0.00000002    0.00149577
     atom    3 type  1   force =     0.00000000    0.00000004    0.00149577
     atom    4 type  1   force =    -0.00000000    0.00000000    0.00149561
     atom    5 type  1   force =     0.00000000   -0.00000029   -0.00098175
     atom    6 type  1   force =     0.00000000    0.00000000   -0.00098199
[...]
     0.9067   0.9068   1.7274   2.3524   2.6279   3.0656

          k = 0.0000 0.4199 0.0000 ( 12029 PWs)   bands (ev):

    -7.9743  -6.3561  -6.2801  -4.6758  -4.2282  -4.2282  -3.6307  -2.5743
    -2.5743  -2.0464  -0.5522  -0.3167  -0.3167   0.2778   0.2778   0.9485
     1.6449   1.6449   2.0530   2.7854   2.7854   2.9432

          k = 0.0000 0.5249 0.0000 ( 12024 PWs)   bands (ev):

    -7.5311  -6.9913  -5.8405  -5.3052  -4.3240  -4.3240  -3.1942  -2.6677
    -2.6677  -2.6646  -0.1638  -0.1638  -0.1339   0.3735   0.9344   0.9345
     1.9012   1.9012   2.4817   2.4817   3.0504   3.0504

          k = 0.0909 0.1575 0.0000 ( 11973 PWs)   bands (ev):

    -8.6169  -6.9178  -4.3245  -4.3245  -4.2656  -2.7721  -2.7352  -2.6724
    -2.6724  -1.3635  -1.2462  -1.2462  -1.1588  -0.8251  -0.0565  -0.0565
     0.6325   0.6325   1.4740   1.6938   2.3510   2.8733

          k = 0.0909 0.2624 0.0000 ( 12007 PWs)   bands (ev):

    -8.4189  -6.7212  -5.1912  -4.6608  -4.0698  -3.5239  -3.0841  -3.0010
    -2.0489  -1.4887  -0.9755  -0.9719  -0.7274  -0.3380  -0.1336   0.1198
     1.2467   1.2580   1.7198   2.1620   2.2362   2.5362

          k = 0.0909 0.3674 0.0000 ( 12009 PWs)   bands (ev):

    -8.1223  -6.4270  -5.9667  -4.9015  -4.2903  -3.7768  -3.3208  -3.2375
    -1.6930  -1.6720  -1.2620  -0.6991  -0.6920   0.3560   0.3984   1.0813
     1.1504   1.5954   1.9868   2.4293   2.5966   2.8099

          k = 0.0909 0.4724 0.0000 ( 12034 PWs)   bands (ev):

    -7.7279  -6.6489  -6.0357  -5.0462  -4.9659  -3.4632  -3.3879  -3.3798
    -2.3303  -1.8251  -0.7982  -0.4115  -0.3196   0.6915   0.7096   1.2057
     1.3752   1.8031   2.2476   2.7252   2.8753   3.1600

          k = 0.0909-0.5774 0.0000 ( 12046 PWs)   bands (ev):

    -7.2364  -7.2364  -5.5482  -5.5482  -5.0944  -3.5107  -3.4274  -2.9047
    -2.9047  -1.8700  -0.8370   0.1438   0.1439   0.2814   0.5740   1.1347
     1.8464   2.0238   2.2676   2.5015   2.7297   3.4858

          k = 0.1818 0.3149 0.0000 ( 12023 PWs)   bands (ev):

    -8.1717  -6.4760  -5.4815  -5.4814  -3.8255  -3.8103  -3.8103  -2.3496
    -2.3060  -1.2144  -1.2144  -0.9531  -0.7386  -0.3982   0.7965   0.7965
     1.8549   1.8642   1.8642   1.9173   2.4874   2.4874

          k = 0.1818 0.4199 0.0000 ( 12032 PWs)   bands (ev):

    -7.8264  -6.2099  -6.1334  -5.6753  -4.5310  -4.0018  -3.4849  -2.5153
    -1.9039  -1.4853  -1.3899  -0.9361  -0.4125   0.2169   1.0857   1.3569
     1.4201   1.8737   1.9356   2.1913   2.9335   3.0776

          k = 0.1818-0.6298 0.0000 ( 12040 PWs)   bands (ev):

    -7.3836  -6.8444  -5.7723  -5.6943  -5.1597  -4.0977  -3.0492  -2.6089
    -2.5207  -1.4801  -1.0012  -0.5649   0.0054   0.4116   0.5122   1.0421
     1.4881   1.6609   2.5018   2.6032   3.4031   3.4448

          k = 0.2727-0.6823 0.0000 ( 12043 PWs)   bands (ev):

    -7.4328  -6.3561  -6.3561  -5.7430  -4.6757  -4.6757  -3.0974  -2.0445
    -2.0445  -1.6473  -1.5977  -0.2887  -0.0408   0.2990   0.3919   0.9667
     0.9667   1.9021   2.9564   2.9977   2.9992   2.9992

          k = 0.2727-0.5774 0.0000 ( 12029 PWs)   bands (ev):

    -6.9423  -6.9423  -6.4048  -5.2567  -5.2567  -4.7240  -2.6162  -2.6162
    -2.0915  -1.6692  -0.6690  -0.6283  -0.1628   0.4214   0.4214   0.8918
     0.9242   1.2049   2.8560   3.6720   3.7326   3.7343

     the Fermi energy is     1.8415 ev

!    total energy              =    -473.82444480 Ry
     total all-electron energy =     -5827.537824 Ry
     estimated scf accuracy    <          8.2E-11 Ry
     smearing contrib. (-TS)   =      -0.00047363 Ry
     internal energy E=F+TS    =    -473.82397117 Ry

     The total energy is F=E-TS. E is the sum of the following terms:
     one-electron contribution =    -172.30903864 Ry
     hartree contribution      =      97.09962155 Ry
     xc contribution           =     -30.43944390 Ry
     ewald contribution        =      47.96924622 Ry
     one-center paw contrib.   =    -416.14435641 Ry

     convergence has been achieved in  10 iterations

     negative rho (up, down):  4.641E-07 0.000E+00

     Forces acting on atoms (cartesian axes, Ry/au):

     atom    1 type  1   force =    -0.00000011   -0.00000006    0.00047500
     atom    2 type  1   force =     0.00000011   -0.00000006    0.00047500
     atom    3 type  1   force =    -0.00000000    0.00000013    0.00047500
     atom    4 type  1   force =     0.00000000   -0.00000000    0.00047506
     atom    5 type  1   force =    -0.00000000   -0.00000038   -0.00097714
     atom    6 type  1   force =     0.00000000    0.00000000   -0.00097693
     atom    7 type  1   force =     0.00000033    0.00000019   -0.00097714
     atom    8 type  1   force =    -0.00000033    0.00000019   -0.00097714
     atom    9 type  1   force =     0.00000000   -0.00000000    0.00050169
     atom   10 type  1   force =     0.00000000   -0.00000117    0.00050220
     atom   11 type  1   force =    -0.00000101    0.00000059    0.00050220
     atom   12 type  1   force =     0.00000101    0.00000059    0.00050220

     Total force =     0.002197     Total SCF correction =     0.000010
     Energy error            =      1.8E-05 Ry
     Gradient error          =      9.8E-04 Ry/Bohr

     number of scf cycles    =  11
     number of bfgs steps    =  10

     energy             old  =    -473.8244272372 Ry
     energy             new  =    -473.8244447985 Ry

     CASE: energy            _new < energy            _old

     new trust radius        =       0.0083463247 bohr
     new conv_thr            =       0.0000000010 Ry


ATOMIC_POSITIONS (angstrom)
Al            1.4318910000        0.8267030000        0.0000000000    0   0   0
Al            4.2956740000        0.8267030000        0.0000000000    0   0   0
Al            2.8637820000        3.3068110000        0.0000000000    0   0   0
Al            5.7275650000        3.3068110000        0.0000000000    0   0   0
Al           -0.0000000000        1.6534066822        2.3214612294
Al            2.8637820000        1.6534060000        2.3214572949
Al            1.4318904092        4.1335136589        2.3214612294
Al            4.2956745908        4.1335136589        2.3214612294
Al           -0.0000000000        0.0000000000        4.6414309712
Al            2.8637820000        0.0000020383        4.6414278599
Al            1.4318927652        2.4801069809        4.6414278599
Al            4.2956722348        2.4801069809        4.6414278599



     Writing config-only to output data dir ./output/pwscf.save/
     NEW-OLD atomic charge density approx. for the potential

     negative rho (up, down):  5.633E-07 0.000E+00

     total cpu time spent up to now is      120.7 secs

     Self-consistent Calculation

     iteration #  1     ecut=    40.00 Ry     beta= 0.70
     Davidson diagonalization with overlap
     ethr =  1.00E-06,  avg # of iterations =  3.0

     Threshold (ethr) on eigenvalues was too large:
     Diagonalizing with lowered threshold

     Davidson diagonalization with overlap
     ethr =  3.34E-08,  avg # of iterations =  5.8

     negative rho (up, down):  4.796E-07 0.000E+00

     total cpu time spent up to now is      122.8 secs

     total energy              =    -473.82442531 Ry
     estimated scf accuracy    <       0.00004480 Ry

     iteration #  2     ecut=    40.00 Ry     beta= 0.70
     Davidson diagonalization with overlap
     ethr =  1.24E-07,  avg # of iterations =  6.9

     negative rho (up, down):  4.777E-07 0.000E+00

     total cpu time spent up to now is      123.9 secs

     total energy              =    -473.82423119 Ry
     estimated scf accuracy    <       0.00384204 Ry

     iteration #  3     ecut=    40.00 Ry     beta= 0.70
     Davidson diagonalization with overlap
     ethr =  1.24E-07,  avg # of iterations =  6.8

     negative rho (up, down):  4.694E-07 0.000E+00

     total cpu time spent up to now is      125.1 secs

     total energy              =    -473.82445502 Ry
     estimated scf accuracy    <       0.00001684 Ry

     iteration #  4     ecut=    40.00 Ry     beta= 0.70
     Davidson diagonalization with overlap
     ethr =  4.68E-08,  avg # of iterations =  2.1

     negative rho (up, down):  4.622E-07 0.000E+00

     total cpu time spent up to now is      126.1 secs

     total energy              =    -473.82445838 Ry
     estimated scf accuracy    <       0.00000539 Ry

     iteration #  5     ecut=    40.00 Ry     beta= 0.70
     Davidson diagonalization with overlap
     ethr =  1.50E-08,  avg # of iterations =  2.2

     negative rho (up, down):  4.471E-07 0.000E+00

     total cpu time spent up to now is      127.0 secs

     total energy              =    -473.82445905 Ry
     estimated scf accuracy    <       0.00000045 Ry

     iteration #  6     ecut=    40.00 Ry     beta= 0.70
     Davidson diagonalization with overlap
     ethr =  1.24E-09,  avg # of iterations =  5.0

     negative rho (up, down):  4.464E-07 0.000E+00

     total cpu time spent up to now is      128.1 secs

     total energy              =    -473.82445921 Ry
     estimated scf accuracy    <       0.00000017 Ry

     iteration #  7     ecut=    40.00 Ry     beta= 0.70
     Davidson diagonalization with overlap
     ethr =  4.67E-10,  avg # of iterations =  1.6

     negative rho (up, down):  4.460E-07 0.000E+00

     total cpu time spent up to now is      129.0 secs

     total energy              =    -473.82445921 Ry
     estimated scf accuracy    <       0.00000005 Ry

     iteration #  8     ecut=    40.00 Ry     beta= 0.70
     Davidson diagonalization with overlap
     ethr =  1.40E-10,  avg # of iterations =  4.2

     negative rho (up, down):  4.457E-07 0.000E+00

     total cpu time spent up to now is      130.1 secs

     total energy              =    -473.82445922 Ry
     estimated scf accuracy    <          9.3E-09 Ry

     iteration #  9     ecut=    40.00 Ry     beta= 0.70
     Davidson diagonalization with overlap
     ethr =  2.58E-11,  avg # of iterations =  3.2

     negative rho (up, down):  4.457E-07 0.000E+00

     total cpu time spent up to now is      131.1 secs

     End of self-consistent calculation

          k = 0.0000 0.0000 0.0000 ( 11947 PWs)   bands (ev):

    -8.7681  -7.0668  -4.4117  -2.9155  -2.9155  -2.9155  -2.8814  -2.8814
    -2.8814  -1.5027  -1.5027  -1.5027  -1.2984  -0.9695  -0.9695  -0.9695
     1.3409   1.3409   1.3409   1.5707   1.5707   1.5707

          k = 0.0000 0.1050 0.0000 ( 11959 PWs)   bands (ev):

    -8.7185  -7.0175  -4.3626  -3.8962  -3.3722  -3.3722  -2.3345  -2.3345
    -2.2573  -1.8265  -1.7692  -1.7692  -1.2517  -0.6203  -0.6203  -0.1965
     0.5649   0.9979   0.9979   2.0095   2.0095   2.2601

          k = 0.0000 0.2099 0.0000 ( 11987 PWs)   bands (ev):

    -8.5698  -6.8700  -4.8078  -4.2155  -3.7527  -3.7527  -3.1452  -2.1161
    -2.1161  -1.6857  -1.6857  -1.1115  -0.8662  -0.2745  -0.0578  -0.0578
     0.7014   0.7014   1.1083   2.3997   2.5001   2.6129

          k = 0.0000 0.3149 0.0000 ( 12001 PWs)   bands (ev):

    -8.3224  -6.6244  -5.6293  -4.0392  -4.0392  -3.9709  -3.9556  -2.3901
    -2.3901  -1.3538  -0.9695  -0.9695  -0.8781   0.2171   0.2171   0.6559
     0.9058   0.9058   1.7276   2.3510   2.6302   3.0657

          k = 0.0000 0.4199 0.0000 ( 12029 PWs)   bands (ev):

    -7.9767  -6.3586  -6.2814  -4.6772  -4.2307  -4.2307  -3.6296  -2.5757
    -2.5757  -2.0454  -0.5518  -0.3179  -0.3179   0.2773   0.2773   0.9488
     1.6435   1.6435   2.0507   2.7840   2.7840   2.9454

          k = 0.0000 0.5249 0.0000 ( 12024 PWs)   bands (ev):

    -7.5335  -6.9938  -5.8418  -5.3066  -4.3265  -4.3265  -3.1931  -2.6691
    -2.6691  -2.6636  -0.1632  -0.1632  -0.1334   0.3739   0.9322   0.9322
     1.8989   1.8989   2.4802   2.4802   3.0507   3.0507

          k = 0.0909 0.1575 0.0000 ( 11973 PWs)   bands (ev):

    -8.6194  -6.9191  -4.3270  -4.3270  -4.2645  -2.7745  -2.7377  -2.6738
    -2.6738  -1.3651  -1.2485  -1.2485  -1.1583  -0.8263  -0.0561  -0.0561
     0.6316   0.6316   1.4749   1.6949   2.3532   2.8736

          k = 0.0909 0.2624 0.0000 ( 12007 PWs)   bands (ev):

    -8.4213  -6.7226  -5.1937  -4.6632  -4.0687  -3.5253  -3.0866  -3.0025
    -2.0514  -1.4902  -0.9748  -0.9714  -0.7286  -0.3393  -0.1340   0.1176
     1.2454   1.2590   1.7184   2.1623   2.2370   2.5384

          k = 0.0909 0.3674 0.0000 ( 12009 PWs)   bands (ev):

    -8.1248  -6.4283  -5.9691  -4.9040  -4.2917  -3.7757  -3.3233  -3.2389
    -1.6945  -1.6710  -1.2645  -0.6984  -0.6915   0.3549   0.3963   1.0818
     1.1494   1.5944   1.9855   2.4296   2.5954   2.8121

          k = 0.0909 0.4724 0.0000 ( 12034 PWs)   bands (ev):

    -7.7303  -6.6514  -6.0370  -5.0487  -4.9673  -3.4657  -3.3868  -3.3813
    -2.3292  -1.8266  -0.7974  -0.4139  -0.3191   0.6919   0.7097   1.2034
     1.3738   1.8012   2.2477   2.7229   2.8739   3.1622

          k = 0.0909-0.5774 0.0000 ( 12046 PWs)   bands (ev):

    -7.2388  -7.2388  -5.5496  -5.5496  -5.0969  -3.5132  -3.4288  -2.9036
    -2.9036  -1.8714  -0.8360   0.1443   0.1443   0.2804   0.5715   1.1341
     1.8451   2.0222   2.2652   2.5007   2.7287   3.4869

          k = 0.1818 0.3149 0.0000 ( 12023 PWs)   bands (ev):

    -8.1741  -6.4773  -5.4839  -5.4839  -3.8245  -3.8117  -3.8117  -2.3520
    -2.3085  -1.2135  -1.2135  -0.9548  -0.7381  -0.3994   0.7942   0.7942
     1.8557   1.8644   1.8644   1.9174   2.4860   2.4860

          k = 0.1818 0.4199 0.0000 ( 12032 PWs)   bands (ev):

    -7.8288  -6.2124  -6.1347  -5.6778  -4.5324  -4.0032  -3.4838  -2.5178
    -1.9029  -1.4878  -1.3890  -0.9377  -0.4120   0.2156   1.0860   1.3553
     1.4191   1.8727   1.9356   2.1890   2.9340   3.0797

          k = 0.1818-0.6298 0.0000 ( 12040 PWs)   bands (ev):

    -7.3861  -6.8469  -5.7748  -5.6956  -5.1610  -4.0991  -3.0481  -2.6114
    -2.5197  -1.4791  -1.0027  -0.5674   0.0059   0.4093   0.5126   1.0408
     1.4883   1.6608   2.5014   2.6008   3.4016   3.4466

          k = 0.2727-0.6823 0.0000 ( 12043 PWs)   bands (ev):

    -7.4352  -6.3585  -6.3585  -5.7443  -4.6771  -4.6771  -3.0964  -2.0435
    -2.0435  -1.6498  -1.6002  -0.2904  -0.0403   0.2978   0.3895   0.9671
     0.9671   1.9012   2.9568   2.9969   2.9969   2.9989

          k = 0.2727-0.5774 0.0000 ( 12029 PWs)   bands (ev):

    -6.9448  -6.9448  -6.4073  -5.2581  -5.2580  -4.7254  -2.6152  -2.6152
    -2.0905  -1.6717  -0.6715  -0.6309  -0.1645   0.4218   0.4218   0.8904
     0.9246   1.2038   2.8569   3.6729   3.7313   3.7353

     the Fermi energy is     1.8409 ev

!    total energy              =    -473.82445922 Ry
     total all-electron energy =     -5827.537838 Ry
     estimated scf accuracy    <          3.1E-10 Ry
     smearing contrib. (-TS)   =      -0.00046922 Ry
     internal energy E=F+TS    =    -473.82399000 Ry

     The total energy is F=E-TS. E is the sum of the following terms:
     one-electron contribution =    -172.43247329 Ry
     hartree contribution      =      97.16092062 Ry
     xc contribution           =     -30.44105037 Ry
     ewald contribution        =      48.03324510 Ry
     one-center paw contrib.   =    -416.14463207 Ry

     convergence has been achieved in   9 iterations

     negative rho (up, down):  4.457E-07 0.000E+00

     Forces acting on atoms (cartesian axes, Ry/au):

     atom    1 type  1   force =    -0.00000013   -0.00000007   -0.00002079
     atom    2 type  1   force =     0.00000013   -0.00000007   -0.00002079
     atom    3 type  1   force =     0.00000000    0.00000015   -0.00002079
     atom    4 type  1   force =     0.00000000    0.00000000   -0.00002060
     atom    5 type  1   force =    -0.00000000   -0.00000032   -0.00017197
     atom    6 type  1   force =     0.00000000    0.00000000   -0.00017154
     atom    7 type  1   force =     0.00000028    0.00000016   -0.00017197
     atom    8 type  1   force =    -0.00000028    0.00000016   -0.00017197
     atom    9 type  1   force =     0.00000000   -0.00000000    0.00019232
     atom   10 type  1   force =     0.00000000   -0.00000043    0.00019270
     atom   11 type  1   force =    -0.00000037    0.00000021    0.00019270
     atom   12 type  1   force =     0.00000037    0.00000021    0.00019270

     Total force =     0.000516     Total SCF correction =     0.000016
     Energy error            =      1.4E-05 Ry
     Gradient error          =      1.9E-04 Ry/Bohr

     bfgs converged in  12 scf cycles and  11 bfgs steps
     (criteria: energy <  1.0E-04 Ry, force <  7.0E-04 Ry/Bohr)

     End of BFGS Geometry Optimization

     Final energy             =    -473.8244592207 Ry

     File ./output/pwscf.bfgs deleted, as requested
Begin final coordinates

ATOMIC_POSITIONS (angstrom)
Al            1.4318910000        0.8267030000        0.0000000000    0   0   0
Al            4.2956740000        0.8267030000        0.0000000000    0   0   0
Al            2.8637820000        3.3068110000        0.0000000000    0   0   0
Al            5.7275650000        3.3068110000        0.0000000000    0   0   0
Al           -0.0000000000        1.6534066822        2.3214612294
Al            2.8637820000        1.6534060000        2.3214572949
Al            1.4318904092        4.1335136589        2.3214612294
Al            4.2956745908        4.1335136589        2.3214612294
Al           -0.0000000000        0.0000000000        4.6414309712
Al            2.8637820000        0.0000020383        4.6414278599
Al            1.4318927652        2.4801069809        4.6414278599
Al            4.2956722348        2.4801069809        4.6414278599
End final coordinates



     Writing all to output data dir ./output/pwscf.save/
 
     init_run     :      0.52s CPU      0.57s WALL (       1 calls)
     electrons    :    121.50s CPU    123.63s WALL (      12 calls)
     update_pot   :      2.82s CPU      2.85s WALL (      11 calls)
     forces       :      2.33s CPU      2.37s WALL (      12 calls)

     Called by init_run:
     wfcinit      :      0.25s CPU      0.27s WALL (       1 calls)
     potinit      :      0.10s CPU      0.12s WALL (       1 calls)
     hinit0       :      0.06s CPU      0.07s WALL (       1 calls)

     Called by electrons:
     c_bands      :    100.40s CPU    101.45s WALL (     115 calls)
     sum_band     :      9.47s CPU      9.70s WALL (     115 calls)
     v_of_rho     :      0.84s CPU      0.94s WALL (     116 calls)
     newd         :      2.53s CPU      2.60s WALL (     116 calls)
     PAW_pot      :     10.09s CPU     10.17s WALL (     127 calls)
     mix_rho      :      0.14s CPU      0.16s WALL (     115 calls)

     Called by c_bands:
     init_us_2    :      1.52s CPU      1.57s WALL (    4064 calls)
     init_us_2:cp :      1.51s CPU      1.56s WALL (    4064 calls)
     cegterg      :     86.17s CPU     87.07s WALL (    1840 calls)

     Called by *egterg:
     cdiaghg      :      5.58s CPU      5.65s WALL (    9171 calls)
     h_psi        :     72.04s CPU     72.78s WALL (    9539 calls)
     s_psi        :      3.16s CPU      3.21s WALL (    9539 calls)
     g_psi        :      0.15s CPU      0.15s WALL (    7683 calls)

     Called by h_psi:
     h_psi:calbec :      4.19s CPU      4.27s WALL (    9539 calls)
     vloc_psi     :     64.21s CPU     64.81s WALL (    9539 calls)
     add_vuspsi   :      3.43s CPU      3.49s WALL (    9539 calls)

     General routines
     calbec       :      5.75s CPU      5.86s WALL (   12323 calls)
     fft          :      1.63s CPU      1.70s WALL (    1638 calls)
     ffts         :      0.04s CPU      0.04s WALL (     231 calls)
     fftw         :     65.66s CPU     66.30s WALL (  281548 calls)
     interpolate  :      0.07s CPU      0.08s WALL (     116 calls)
 
     Parallel routines
 
     PWSCF        :   2m 8.75s CPU   2m12.41s WALL

 
   This run was terminated on:  11:46:13  17Jun2023            

=------------------------------------------------------------------------------=
   JOB DONE.
=------------------------------------------------------------------------------=
