
     Program PHONON v.7.1 starts on 31May2023 at 10: 5:24 

     This program is part of the open-source Quantum ESPRESSO suite
     for quantum simulation of materials; please cite
         "P. Giannozzi et al., J. Phys.:Condens. Matter 21 395502 (2009);
         "P. Giannozzi et al., J. Phys.:Condens. Matter 29 465901 (2017);
         "P. Giannozzi et al., J. Chem. Phys. 152 154105 (2020);
          URL http://www.quantum-espresso.org", 
     in publications or presentations arising from this work. More details at
     http://www.quantum-espresso.org/quote

     Parallel version (MPI), running on    24 processors

     MPI processes distributed on     1 nodes
     R & G space division:  proc/nbgrp/npool/nimage =      24
     153984 MiB available memory on the printing compute node when the environment starts
 
     Waiting for input...
     Reading input from standard input
      Title line not specified: using 'default'.

     Reading xml data from directory:

     ./pwscf.save/
     file O.pbe-n-kjpaw_psl.0.1.UPF: wavefunction(s)  2P renormalized

     IMPORTANT: XC functional enforced from input :
     Exchange-correlation= PBE
                           (   1   4   3   4   0   0   0)
     Any further DFT definition will be discarded
     Please, verify this is what you really want

 
     Parallelization info
     --------------------
     sticks:   dense  smooth     PW     G-vecs:    dense   smooth      PW
     Min        2273    1136    284               399495   141218   17654
     Max        2274    1137    285               399500   141221   17656
     Sum       54553   27281   6817              9587919  3389267  423701
 
     Using Slab Decomposition
 

     negative rho (up, down):  2.446E-03 5.634E-04
     Reading collected, re-writing distributed wavefunctions

     Calculation of q =    0.0000000   0.0000000   0.0000000

     default                                                                    

     bravais-lattice index     =            0
     lattice parameter (alat)  =      37.7945  a.u.
     unit-cell volume          =   53986.6760 (a.u.)^3
     number of atoms/cell      =            2
     number of atomic types    =            1
     kinetic-energy cut-off    =      60.0000  Ry
     charge density cut-off    =     480.0000  Ry
     convergence threshold     =      1.0E-12
     beta                      =       0.7000
     number of iterations used =            4
     Exchange-correlation= PBE
                           (   1   4   3   4   0   0   0)


     celldm(1)=   37.79452  celldm(2)=    0.00000  celldm(3)=    0.00000
     celldm(4)=    0.00000  celldm(5)=    0.00000  celldm(6)=    0.00000

     crystal axes: (cart. coord. in units of alat)
               a(1) = (  1.0000  0.0000  0.0000 )  
               a(2) = (  0.0000  1.0000  0.0000 )  
               a(3) = (  0.0000  0.0000  1.0000 )  

     reciprocal axes: (cart. coord. in units 2 pi/alat)
               b(1) = (  1.0000  0.0000  0.0000 )  
               b(2) = (  0.0000  1.0000  0.0000 )  
               b(3) = (  0.0000  0.0000  1.0000 )  


     Atoms inside the unit cell: 

     Cartesian axes

     site n.  atom      mass           positions (alat units)
        1     O   15.9990   tau(    1) = (    0.50000    0.50000    0.53053  )
        2     O   15.9990   tau(    2) = (    0.50000    0.50000    0.46947  )

     Computing dynamical matrix for 
                    q = (   0.0000000   0.0000000   0.0000000 )
 
      2 Sym.Ops. (with q -> -q+G )


     G cutoff =17367.5767  ( 399497 G-vectors)     FFT grid: (270,270,270)
     G cutoff = 8683.7884  ( 141218 G-vectors)  smooth grid: (192,192,192)

     number of k points=     2  Gaussian smearing, width (Ry)=  0.0020
                       cart. coord. in units 2pi/alat
        k(    1) = (   0.0000000   0.0000000   0.0000000), wk =   1.0000000
        k(    2) = (   0.0000000   0.0000000   0.0000000), wk =   1.0000000

     PseudoPot. # 1 for O  read from file:
     /home/cjw/pseudopotential/SSSP_1.1.2_PBE_efficiency/O.pbe-n-kjpaw_psl.0.1.UPF
     MD5 check sum: 0234752ac141de4415c5fc33072bef88
     Pseudo is Projector augmented-wave + core cor, Zval =  6.0
     Generated using "atomic" code by A. Dal Corso  v.5.0.99 svn rev. 10869
     Shape of augmentation charge: BESSEL
     Using radial grid of 1095 points,  4 beta functions with: 
                l(1) =   0
                l(2) =   0
                l(3) =   1
                l(4) =   1
     Q(r) pseudized with 0 coefficients 


     Mode symmetry, C_1 (1)     point group:

     k=gamma and q=gamma tricks are used


     Atomic displacements:
     There are    6 irreducible representations

     Representation     1      1 modes -  To be done

     Representation     2      1 modes -  To be done

     Representation     3      1 modes -  To be done

     Representation     4      1 modes -  To be done

     Representation     5      1 modes -  To be done

     Representation     6      1 modes -  To be done



     Alpha used in Ewald sum =   2.8000

     negative rho (up, down):  2.446E-03 5.634E-04
     PHONON       :     51.34s CPU     57.29s WALL



     Representation #   1 mode #   1

     Self-consistent Calculation
 
     Pert. #  1: Fermi energy shift (Ry) =     0.0000E+00     0.0000E+00

      iter #   1 total cpu time :    68.0 secs   av.it.:   7.5
      thresh= 1.000E-02 alpha_mix =  0.700 |ddv_scf|^2 =  4.562E-09
 
     Pert. #  1: Fermi energy shift (Ry) =     0.0000E+00     0.0000E+00

      iter #   2 total cpu time :    82.5 secs   av.it.:  15.5
      thresh= 6.754E-06 alpha_mix =  0.700 |ddv_scf|^2 =  5.303E-10
 
     Pert. #  1: Fermi energy shift (Ry) =     0.0000E+00     0.0000E+00

      iter #   3 total cpu time :    98.0 secs   av.it.:  14.5
      thresh= 2.303E-06 alpha_mix =  0.700 |ddv_scf|^2 =  5.044E-12
 
     Pert. #  1: Fermi energy shift (Ry) =     0.0000E+00     0.0000E+00

      iter #   4 total cpu time :   108.6 secs   av.it.:  16.0
      thresh= 2.246E-07 alpha_mix =  0.700 |ddv_scf|^2 =  1.150E-13

     End of self-consistent calculation

     Convergence has been achieved 


     Representation #   2 mode #   2

     Self-consistent Calculation
 
     Pert. #  1: Fermi energy shift (Ry) =     0.0000E+00     0.0000E+00

      iter #   1 total cpu time :   126.6 secs   av.it.:   7.5
      thresh= 1.000E-02 alpha_mix =  0.700 |ddv_scf|^2 =  4.563E-09
 
     Pert. #  1: Fermi energy shift (Ry) =     0.0000E+00     0.0000E+00

      iter #   2 total cpu time :   187.2 secs   av.it.:  15.5
      thresh= 6.755E-06 alpha_mix =  0.700 |ddv_scf|^2 =  5.303E-10
 
     Pert. #  1: Fermi energy shift (Ry) =     0.0000E+00     0.0000E+00

      iter #   3 total cpu time :   202.3 secs   av.it.:  14.5
      thresh= 2.303E-06 alpha_mix =  0.700 |ddv_scf|^2 =  5.044E-12
 
     Pert. #  1: Fermi energy shift (Ry) =     0.0000E+00     0.0000E+00

      iter #   4 total cpu time :   211.9 secs   av.it.:  16.5
      thresh= 2.246E-07 alpha_mix =  0.700 |ddv_scf|^2 =  1.154E-13

     End of self-consistent calculation

     Convergence has been achieved 


     Representation #   3 mode #   3

     Self-consistent Calculation
 
     Pert. #  1: Fermi energy shift (Ry) =     0.0000E+00     0.0000E+00

      iter #   1 total cpu time :   233.4 secs   av.it.:   7.0
      thresh= 1.000E-02 alpha_mix =  0.700 |ddv_scf|^2 =  1.024E-08
 
     Pert. #  1: Fermi energy shift (Ry) =     0.0000E+00     0.0000E+00

      iter #   2 total cpu time :   253.5 secs   av.it.:  15.5
      thresh= 1.012E-05 alpha_mix =  0.700 |ddv_scf|^2 =  4.497E-08
 
     Pert. #  1: Fermi energy shift (Ry) =     0.0000E+00     0.0000E+00

      iter #   3 total cpu time :   269.5 secs   av.it.:  13.5
      thresh= 2.121E-05 alpha_mix =  0.700 |ddv_scf|^2 =  1.060E-09
 
     Pert. #  1: Fermi energy shift (Ry) =     0.0000E+00     0.0000E+00

      iter #   4 total cpu time :   285.0 secs   av.it.:  14.5
      thresh= 3.255E-06 alpha_mix =  0.700 |ddv_scf|^2 =  7.322E-10
 
     Pert. #  1: Fermi energy shift (Ry) =     0.0000E+00     0.0000E+00

      iter #   5 total cpu time :   299.5 secs   av.it.:  13.5
      thresh= 2.706E-06 alpha_mix =  0.700 |ddv_scf|^2 =  9.606E-12
 
     Pert. #  1: Fermi energy shift (Ry) =     0.0000E+00     0.0000E+00

      iter #   6 total cpu time :   308.4 secs   av.it.:  14.0
      thresh= 3.099E-07 alpha_mix =  0.700 |ddv_scf|^2 =  7.737E-13

     End of self-consistent calculation

     Convergence has been achieved 


     Representation #   4 mode #   4

     Self-consistent Calculation
 
     Pert. #  1: Fermi energy shift (Ry) =     0.0000E+00     0.0000E+00

      iter #   1 total cpu time :   330.2 secs   av.it.:   7.5
      thresh= 1.000E-02 alpha_mix =  0.700 |ddv_scf|^2 =  4.545E-09
 
     Pert. #  1: Fermi energy shift (Ry) =     0.0000E+00     0.0000E+00

      iter #   2 total cpu time :   346.7 secs   av.it.:  15.5
      thresh= 6.741E-06 alpha_mix =  0.700 |ddv_scf|^2 =  5.288E-10
 
     Pert. #  1: Fermi energy shift (Ry) =     0.0000E+00     0.0000E+00

      iter #   3 total cpu time :   365.6 secs   av.it.:  14.5
      thresh= 2.300E-06 alpha_mix =  0.700 |ddv_scf|^2 =  5.037E-12
 
     Pert. #  1: Fermi energy shift (Ry) =     0.0000E+00     0.0000E+00

      iter #   4 total cpu time :   409.8 secs   av.it.:  16.0
      thresh= 2.244E-07 alpha_mix =  0.700 |ddv_scf|^2 =  1.145E-13

     End of self-consistent calculation

     Convergence has been achieved 


     Representation #   5 mode #   5

     Self-consistent Calculation
 
     Pert. #  1: Fermi energy shift (Ry) =     0.0000E+00     0.0000E+00

      iter #   1 total cpu time :   431.6 secs   av.it.:   7.5
      thresh= 1.000E-02 alpha_mix =  0.700 |ddv_scf|^2 =  4.546E-09
 
     Pert. #  1: Fermi energy shift (Ry) =     0.0000E+00     0.0000E+00

      iter #   2 total cpu time :   447.7 secs   av.it.:  15.5
      thresh= 6.742E-06 alpha_mix =  0.700 |ddv_scf|^2 =  5.289E-10
 
     Pert. #  1: Fermi energy shift (Ry) =     0.0000E+00     0.0000E+00

      iter #   3 total cpu time :   463.3 secs   av.it.:  14.5
      thresh= 2.300E-06 alpha_mix =  0.700 |ddv_scf|^2 =  5.038E-12
 
     Pert. #  1: Fermi energy shift (Ry) =     0.0000E+00     0.0000E+00

      iter #   4 total cpu time :   472.9 secs   av.it.:  16.0
      thresh= 2.244E-07 alpha_mix =  0.700 |ddv_scf|^2 =  1.149E-13

     End of self-consistent calculation

     Convergence has been achieved 


     Representation #   6 mode #   6

     Self-consistent Calculation
 
     Pert. #  1: Fermi energy shift (Ry) =     0.0000E+00     0.0000E+00

      iter #   1 total cpu time :   494.0 secs   av.it.:   7.0
      thresh= 1.000E-02 alpha_mix =  0.700 |ddv_scf|^2 =  1.020E-08
 
     Pert. #  1: Fermi energy shift (Ry) =     0.0000E+00     0.0000E+00

      iter #   2 total cpu time :   508.8 secs   av.it.:  15.5
      thresh= 1.010E-05 alpha_mix =  0.700 |ddv_scf|^2 =  4.489E-08
 
     Pert. #  1: Fermi energy shift (Ry) =     0.0000E+00     0.0000E+00

      iter #   3 total cpu time :   522.7 secs   av.it.:  13.5
      thresh= 2.119E-05 alpha_mix =  0.700 |ddv_scf|^2 =  1.044E-09
 
     Pert. #  1: Fermi energy shift (Ry) =     0.0000E+00     0.0000E+00

      iter #   4 total cpu time :   542.9 secs   av.it.:  14.5
      thresh= 3.231E-06 alpha_mix =  0.700 |ddv_scf|^2 =  7.209E-10
 
     Pert. #  1: Fermi energy shift (Ry) =     0.0000E+00     0.0000E+00

      iter #   5 total cpu time :   558.6 secs   av.it.:  13.5
      thresh= 2.685E-06 alpha_mix =  0.700 |ddv_scf|^2 =  9.599E-12
 
     Pert. #  1: Fermi energy shift (Ry) =     0.0000E+00     0.0000E+00

      iter #   6 total cpu time :   567.8 secs   av.it.:  14.0
      thresh= 3.098E-07 alpha_mix =  0.700 |ddv_scf|^2 =  7.749E-13

     End of self-consistent calculation

     Convergence has been achieved 
 
     Number of q in the star =    1
     List of q in the star:
          1   0.000000000   0.000000000   0.000000000

     Diagonalizing the dynamical matrix

     q = (    0.000000000   0.000000000   0.000000000 ) 

 **************************************************************************
     freq (    1) =      -2.457169 [THz] =     -81.962342 [cm-1]
     freq (    2) =      -2.456732 [THz] =     -81.947767 [cm-1]
     freq (    3) =      10.102258 [THz] =     336.975044 [cm-1]
     freq (    4) =      13.210685 [THz] =     440.661021 [cm-1]
     freq (    5) =      13.212099 [THz] =     440.708172 [cm-1]
     freq (    6) =      46.801731 [THz] =    1561.137700 [cm-1]
 **************************************************************************

     Mode symmetry, C_1 (1)     point group:

     freq (   1-   1) =        -82.0  [cm-1]   -->   ?
     freq (   2-   2) =        -81.9  [cm-1]   -->   ?
     freq (   3-   3) =        337.0  [cm-1]   -->   ?
     freq (   4-   4) =        440.7  [cm-1]   -->   ?
     freq (   5-   5) =        440.7  [cm-1]   -->   ?
     freq (   6-   6) =       1561.1  [cm-1]   --> A               I+R
 
     PHONON       :   6m24.38s CPU   9m35.09s WALL

     INITIALIZATION: 
     phq_setup    :      4.11s CPU      5.87s WALL (       1 calls)
     phq_init     :     38.82s CPU     40.74s WALL (       1 calls)
 
     phq_init     :     38.82s CPU     40.74s WALL (       1 calls)
     set_drhoc    :      9.12s CPU      9.51s WALL (       3 calls)
     init_vloc    :      0.08s CPU      0.08s WALL (       1 calls)
     init_us_1    :      0.01s CPU      0.01s WALL (       1 calls)
     init_us_2    :      0.25s CPU      0.28s WALL (      98 calls)
     newd         :      0.36s CPU      0.57s WALL (       1 calls)
     dvanqq       :     17.26s CPU     17.56s WALL (       1 calls)
     drho         :      8.40s CPU      9.41s WALL (       1 calls)
 
     DYNAMICAL MATRIX:
     dynmat0      :      7.83s CPU      8.42s WALL (       1 calls)
     phqscf       :    332.92s CPU    517.35s WALL (       1 calls)
     dynmatrix    :      0.11s CPU      0.12s WALL (       1 calls)
 
     phqscf       :    332.92s CPU    517.35s WALL (       1 calls)
     solve_linter :    332.00s CPU    508.69s WALL (       6 calls)
     drhodv       :      0.92s CPU      1.00s WALL (       6 calls)
 
     dynmat0      :      7.83s CPU      8.42s WALL (       1 calls)
     dynmat_us    :      0.34s CPU      0.35s WALL (       1 calls)
     d2ionq       :      0.10s CPU      0.10s WALL (       1 calls)
     dynmatcc     :      7.37s CPU      7.94s WALL (       1 calls)
 
     dynmat_us    :      0.34s CPU      0.35s WALL (       1 calls)
     addusdynmat  :      0.00s CPU      0.00s WALL (       1 calls)
 
     phqscf       :    332.92s CPU    517.35s WALL (       1 calls)
     solve_linter :    332.00s CPU    508.69s WALL (       6 calls)
 
     solve_linter :    332.00s CPU    508.69s WALL (       6 calls)
     dvqpsi_us    :      1.81s CPU      1.96s WALL (      12 calls)
     sth_kernel   :    164.12s CPU    169.25s WALL (      28 calls)
     apply_dpot_b :      5.42s CPU      5.77s WALL (      44 calls)
     ortho        :      0.63s CPU      0.64s WALL (      56 calls)
     cgsolve      :    148.35s CPU    152.50s WALL (      56 calls)
     incdrhoscf   :      8.85s CPU      9.12s WALL (      56 calls)
     addusddens   :     34.51s CPU     37.00s WALL (      34 calls)
     dv_of_drho   :     41.07s CPU     49.62s WALL (      28 calls)
     mix_pot      :      2.97s CPU    106.61s WALL (      28 calls)
     ef_shift     :      4.56s CPU      5.08s WALL (      28 calls)
     ef_shift_wfc :      0.00s CPU      0.04s WALL (       6 calls)
     localdos     :     10.41s CPU     11.04s WALL (       6 calls)
     newdq        :     23.43s CPU     25.27s WALL (      28 calls)
     adddvscf     :      0.29s CPU      0.29s WALL (      44 calls)
     drhodvus     :      0.37s CPU      0.84s WALL (       6 calls)
 
     dvqpsi_us    :      1.81s CPU      1.96s WALL (      12 calls)
     dvqpsi_us_on :      0.09s CPU      0.09s WALL (      12 calls)
 
     cgsolve      :    148.35s CPU    152.50s WALL (      56 calls)
     ch_psi       :    138.61s CPU    142.67s WALL (    1019 calls)
 
     ch_psi       :    138.61s CPU    142.67s WALL (    1019 calls)
     h_psi        :    124.82s CPU    128.72s WALL (    1019 calls)
     last         :     11.30s CPU     11.42s WALL (    1019 calls)
 
     h_psi        :    124.82s CPU    128.72s WALL (    1019 calls)
     add_vuspsi   :      1.42s CPU      1.44s WALL (    1019 calls)
 
     incdrhoscf   :      8.85s CPU      9.12s WALL (      56 calls)
     addusdbec    :      0.25s CPU      0.25s WALL (      68 calls)
 
     drhodvus     :      0.37s CPU      0.84s WALL (       6 calls)
 
      General routines
     calbec       :     11.17s CPU     11.27s WALL (    2242 calls)
     fft          :     51.09s CPU     58.41s WALL (    1185 calls)
     ffts         :      3.60s CPU      4.03s WALL (     264 calls)
     fftw         :    118.29s CPU    122.61s WALL (   10850 calls)
     davcio       :      0.07s CPU      4.26s WALL (     514 calls)
     write_rec    :      0.16s CPU     58.01s WALL (      34 calls)
 
 
     PHONON       :   6m24.38s CPU   9m35.09s WALL

 
   This run was terminated on:  10:14:59  31May2023            

=------------------------------------------------------------------------------=
   JOB DONE.
=------------------------------------------------------------------------------=
