
     Program PWSCF v.7.1 starts on 31May2023 at 10: 2:43 

     This program is part of the open-source Quantum ESPRESSO suite
     for quantum simulation of materials; please cite
         "P. Giannozzi et al., J. Phys.:Condens. Matter 21 395502 (2009);
         "P. Giannozzi et al., J. Phys.:Condens. Matter 29 465901 (2017);
         "P. Giannozzi et al., J. Chem. Phys. 152 154105 (2020);
          URL http://www.quantum-espresso.org", 
     in publications or presentations arising from this work. More details at
     http://www.quantum-espresso.org/quote

     Parallel version (MPI), running on    24 processors

     MPI processes distributed on     1 nodes
     154610 MiB available memory on the printing compute node when the environment starts
 
     Waiting for input...
     Reading input from standard input

     Current dimensions of program PWSCF are:
     Max number of different atomic species (ntypx) = 10
     Max number of k-points (npk) =  40000
     Max angular momentum in pseudopotentials (lmaxx) =  4
     file O.pbe-n-kjpaw_psl.0.1.UPF: wavefunction(s)  2P renormalized
 
     R & G space division:  proc/nbgrp/npool/nimage =      24
     Subspace diagonalization in iterative solution of the eigenvalue problem:
     a serial algorithm will be used

 
     Parallelization info
     --------------------
     sticks:   dense  smooth     PW     G-vecs:    dense   smooth      PW
     Min        2273    1136    284               399495   141218   17654
     Max        2274    1137    285               399500   141221   17656
     Sum       54553   27281   6817              9587919  3389267  423701
 
     Using Slab Decomposition
 


     bravais-lattice index     =            0
     lattice parameter (alat)  =      37.7945  a.u.
     unit-cell volume          =   53986.6760 (a.u.)^3
     number of atoms/cell      =            2
     number of atomic types    =            1
     number of electrons       =        12.00
     number of Kohn-Sham states=           10
     kinetic-energy cutoff     =      60.0000  Ry
     charge density cutoff     =     480.0000  Ry
     scf convergence threshold =      1.0E-06
     mixing beta               =       0.7000
     number of iterations used =            8  plain     mixing
     energy convergence thresh.=      1.0E-04
     force convergence thresh. =      1.0E-03
     Exchange-correlation= SLA  PW   PBX  PBC
                           (   1   4   3   4   0   0   0)
     nstep                     =           50


     celldm(1)=  37.794522  celldm(2)=   0.000000  celldm(3)=   0.000000
     celldm(4)=   0.000000  celldm(5)=   0.000000  celldm(6)=   0.000000

     crystal axes: (cart. coord. in units of alat)
               a(1) = (   1.000000   0.000000   0.000000 )  
               a(2) = (   0.000000   1.000000   0.000000 )  
               a(3) = (   0.000000   0.000000   1.000000 )  

     reciprocal axes: (cart. coord. in units 2 pi/alat)
               b(1) = (  1.000000  0.000000  0.000000 )  
               b(2) = (  0.000000  1.000000  0.000000 )  
               b(3) = (  0.000000  0.000000  1.000000 )  


     PseudoPot. # 1 for O  read from file:
     /home/cjw/pseudopotential/SSSP_1.1.2_PBE_efficiency/O.pbe-n-kjpaw_psl.0.1.UPF
     MD5 check sum: 0234752ac141de4415c5fc33072bef88
     Pseudo is Projector augmented-wave + core cor, Zval =  6.0
     Generated using "atomic" code by A. Dal Corso  v.5.0.99 svn rev. 10869
     Shape of augmentation charge: BESSEL
     Using radial grid of 1095 points,  4 beta functions with: 
                l(1) =   0
                l(2) =   0
                l(3) =   1
                l(4) =   1
     Q(r) pseudized with 0 coefficients 


     atomic species   valence    mass     pseudopotential
        O              6.00    15.99900     O ( 1.00)

     Starting magnetic structure 
     atomic species   magnetization
        O            0.500

     No symmetry found



   Cartesian axes

     site n.     atom                  positions (alat units)
         1           O   tau(   1) = (   0.5000000   0.5000000   0.5311489  )
         2           O   tau(   2) = (   0.5000000   0.5000000   0.4688511  )

     number of k points=     1  Gaussian smearing, width (Ry)=  0.0020
                       cart. coord. in units 2pi/alat
        k(    1) = (   0.0000000   0.0000000   0.0000000), wk =   1.0000000

     Dense  grid:  9587919 G-vectors     FFT dimensions: ( 270, 270, 270)

     Smooth grid:  3389267 G-vectors     FFT dimensions: ( 192, 192, 192)

     Estimated max dynamical RAM per process >     684.99 MB

     Estimated total dynamical RAM >      16.05 GB
     Generating pointlists ...
     new r_m :   0.0257 (alat units)  0.9712 (a.u.) for type    1

     Initial potential from superposition of free atoms

     starting charge      12.0000, renormalised to      12.0000

     negative rho (up, down):  1.544E-03 5.148E-04
     Starting wfcs are    8 randomized atomic wfcs +    2 random wfcs
     Checking if some PAW data can be deallocated... 

     total cpu time spent up to now is        9.2 secs

     Self-consistent Calculation

     iteration #  1     ecut=    60.00 Ry     beta= 0.70
     Davidson diagonalization with overlap
     ethr =  1.00E-02,  avg # of iterations =  7.0

     negative rho (up, down):  2.245E-03 5.498E-04

     total cpu time spent up to now is       14.4 secs

     total energy              =     -83.00448879 Ry
     estimated scf accuracy    <       0.19239971 Ry

     total magnetization       =     2.00 Bohr mag/cell
     absolute magnetization    =     2.08 Bohr mag/cell

     iteration #  2     ecut=    60.00 Ry     beta= 0.70
     Davidson diagonalization with overlap
     ethr =  1.60E-03,  avg # of iterations =  3.0

     negative rho (up, down):  2.403E-03 5.067E-04

     total cpu time spent up to now is       19.1 secs

     total energy              =     -83.04171377 Ry
     estimated scf accuracy    <       0.01741696 Ry

     total magnetization       =     2.00 Bohr mag/cell
     absolute magnetization    =     2.05 Bohr mag/cell

     iteration #  3     ecut=    60.00 Ry     beta= 0.70
     Davidson diagonalization with overlap
     ethr =  1.45E-04,  avg # of iterations = 16.0

     negative rho (up, down):  2.453E-03 5.263E-04

     total cpu time spent up to now is       25.4 secs

     total energy              =     -83.04349848 Ry
     estimated scf accuracy    <       0.00243141 Ry

     total magnetization       =     2.00 Bohr mag/cell
     absolute magnetization    =     2.05 Bohr mag/cell

     iteration #  4     ecut=    60.00 Ry     beta= 0.70
     Davidson diagonalization with overlap
     ethr =  2.03E-05,  avg # of iterations =  7.0

     negative rho (up, down):  2.451E-03 5.654E-04

     total cpu time spent up to now is       31.3 secs

     total energy              =     -83.04371379 Ry
     estimated scf accuracy    <       0.00467696 Ry

     total magnetization       =     2.00 Bohr mag/cell
     absolute magnetization    =     2.05 Bohr mag/cell

     iteration #  5     ecut=    60.00 Ry     beta= 0.70
     Davidson diagonalization with overlap
     ethr =  2.03E-05,  avg # of iterations =  2.0

     negative rho (up, down):  2.437E-03 5.382E-04

     total cpu time spent up to now is       36.6 secs

     total energy              =     -83.04453322 Ry
     estimated scf accuracy    <       0.00006484 Ry

     total magnetization       =     2.00 Bohr mag/cell
     absolute magnetization    =     2.05 Bohr mag/cell

     iteration #  6     ecut=    60.00 Ry     beta= 0.70
     Davidson diagonalization with overlap
     ethr =  5.40E-07,  avg # of iterations = 10.0

     negative rho (up, down):  2.433E-03 5.396E-04

     total cpu time spent up to now is       42.5 secs

     total energy              =     -83.04455871 Ry
     estimated scf accuracy    <       0.00003530 Ry

     total magnetization       =     2.00 Bohr mag/cell
     absolute magnetization    =     2.05 Bohr mag/cell

     iteration #  7     ecut=    60.00 Ry     beta= 0.70
     Davidson diagonalization with overlap
     ethr =  2.94E-07,  avg # of iterations =  1.5

     negative rho (up, down):  2.429E-03 5.421E-04

     total cpu time spent up to now is       47.7 secs

     total energy              =     -83.04456487 Ry
     estimated scf accuracy    <       0.00000108 Ry

     total magnetization       =     2.00 Bohr mag/cell
     absolute magnetization    =     2.05 Bohr mag/cell

     iteration #  8     ecut=    60.00 Ry     beta= 0.70
     Davidson diagonalization with overlap
     ethr =  8.96E-09,  avg # of iterations =  4.0

     negative rho (up, down):  2.428E-03 5.423E-04
 
     Magnetic moment per site  (integrated on atomic sphere of radius R)
     atom   1 (R=0.026)  charge=  3.0350  magn=  0.5822
     atom   2 (R=0.026)  charge=  3.0355  magn=  0.5820

     total cpu time spent up to now is       52.2 secs

     End of self-consistent calculation

 ------ SPIN UP ------------


          k = 0.0000 0.0000 0.0000 (423701 PWs)   bands (ev):

   -32.2061 -20.8140 -13.4250 -13.2069 -13.2069  -7.0986  -7.0986  -0.3081
    -0.0263   0.1100

 ------ SPIN DOWN ----------


          k = 0.0000 0.0000 0.0000 (423701 PWs)   bands (ev):

   -30.9929 -19.0126 -12.5434 -11.3388 -11.3388  -4.7916  -4.7915  -0.2271
     0.0504   0.1828

     the Fermi energy is    -5.7201 ev

!    total energy              =     -83.04456536 Ry
     total all-electron energy =      -300.738350 Ry
     estimated scf accuracy    <       0.00000030 Ry
     smearing contrib. (-TS)   =      -0.00000000 Ry
     internal energy E=F+TS    =     -83.04456536 Ry

     The total energy is F=E-TS. E is the sum of the following terms:
     one-electron contribution =    -142.77437934 Ry
     hartree contribution      =      73.47488342 Ry
     xc contribution           =     -14.44101032 Ry
     ewald contribution        =      19.78479360 Ry
     one-center paw contrib.   =     -19.08885273 Ry

     total magnetization       =     2.00 Bohr mag/cell
     absolute magnetization    =     2.05 Bohr mag/cell

     convergence has been achieved in   8 iterations

     negative rho (up, down):  2.428E-03 5.423E-04

     Forces acting on atoms (cartesian axes, Ry/au):

     atom    1 type  1   force =    -0.00000021    0.00000436   -0.06172382
     atom    2 type  1   force =     0.00000021   -0.00000436    0.06172382

     Total force =     0.087291     Total SCF correction =     0.001482

     BFGS Geometry Optimization
     Energy error            =      0.0E+00 Ry
     Gradient error          =      6.2E-02 Ry/Bohr

     number of scf cycles    =   1
     number of bfgs steps    =   0

     energy             new  =     -83.0445653643 Ry

     new trust radius        =       0.0617238203 bohr
     new conv_thr            =       0.0000010000 Ry


ATOMIC_POSITIONS (angstrom)
O             9.9999998903       10.0000023060       10.5903151610
O            10.0000001097        9.9999976940        9.4096848390



     Writing config-only to output data dir ./pwscf.save/
     NEW-OLD atomic charge density approx. for the potential

     negative rho (up, down):  1.429E-03 1.697E-03
     Generating pointlists ...
     new r_m :   0.0244 (alat units)  0.9203 (a.u.) for type    1

     total cpu time spent up to now is       60.3 secs

     Self-consistent Calculation

     iteration #  1     ecut=    60.00 Ry     beta= 0.70
     Davidson diagonalization with overlap
     ethr =  1.00E-06,  avg # of iterations =  9.5

     negative rho (up, down):  2.943E-03 1.962E-03

     total cpu time spent up to now is       66.6 secs

     total energy              =     -83.04024215 Ry
     estimated scf accuracy    <       0.00315785 Ry

     total magnetization       =     2.00 Bohr mag/cell
     absolute magnetization    =     2.05 Bohr mag/cell

     iteration #  2     ecut=    60.00 Ry     beta= 0.70
     Davidson diagonalization with overlap
     ethr =  2.63E-05,  avg # of iterations =  2.0

     negative rho (up, down):  2.501E-03 9.395E-04

     total cpu time spent up to now is       71.7 secs

     total energy              =     -83.04113999 Ry
     estimated scf accuracy    <       0.00040452 Ry

     total magnetization       =     2.00 Bohr mag/cell
     absolute magnetization    =     2.05 Bohr mag/cell

     iteration #  3     ecut=    60.00 Ry     beta= 0.70
     Davidson diagonalization with overlap
     ethr =  3.37E-06,  avg # of iterations =  2.0

     negative rho (up, down):  2.462E-03 6.705E-04

     total cpu time spent up to now is       77.0 secs

     total energy              =     -83.04119565 Ry
     estimated scf accuracy    <       0.00002809 Ry

     total magnetization       =     2.00 Bohr mag/cell
     absolute magnetization    =     2.05 Bohr mag/cell

     iteration #  4     ecut=    60.00 Ry     beta= 0.70
     Davidson diagonalization with overlap
     ethr =  2.34E-07,  avg # of iterations =  3.0

     negative rho (up, down):  2.472E-03 6.061E-04

     total cpu time spent up to now is       81.8 secs

     total energy              =     -83.04120007 Ry
     estimated scf accuracy    <       0.00006141 Ry

     total magnetization       =     2.00 Bohr mag/cell
     absolute magnetization    =     2.05 Bohr mag/cell

     iteration #  5     ecut=    60.00 Ry     beta= 0.70
     Davidson diagonalization with overlap
     ethr =  2.34E-07,  avg # of iterations =  2.0

     negative rho (up, down):  2.476E-03 5.980E-04

     total cpu time spent up to now is       86.5 secs

     total energy              =     -83.04120934 Ry
     estimated scf accuracy    <       0.00000115 Ry

     total magnetization       =     2.00 Bohr mag/cell
     absolute magnetization    =     2.05 Bohr mag/cell

     iteration #  6     ecut=    60.00 Ry     beta= 0.70
     Davidson diagonalization with overlap
     ethr =  9.57E-09,  avg # of iterations =  4.0

     negative rho (up, down):  2.474E-03 5.974E-04
 
     Magnetic moment per site  (integrated on atomic sphere of radius R)
     atom   1 (R=0.024)  charge=  2.8075  magn=  0.5365
     atom   2 (R=0.024)  charge=  2.8067  magn=  0.5369

     total cpu time spent up to now is       91.0 secs

     End of self-consistent calculation

 ------ SPIN UP ------------


          k = 0.0000 0.0000 0.0000 (423701 PWs)   bands (ev):

   -33.5775 -20.2779 -13.7869 -13.7869 -13.5967  -6.5665  -6.5665  -0.3122
    -0.0303   0.1279

 ------ SPIN DOWN ----------


          k = 0.0000 0.0000 0.0000 (423701 PWs)   bands (ev):

   -32.4188 -18.4832 -12.6675 -11.9257 -11.9257  -4.2475  -4.2475  -0.2245
     0.0548   0.1861

     the Fermi energy is    -5.9745 ev

!    total energy              =     -83.04120953 Ry
     total all-electron energy =      -300.734994 Ry
     estimated scf accuracy    <       0.00000098 Ry
     smearing contrib. (-TS)   =      -0.00000000 Ry
     internal energy E=F+TS    =     -83.04120953 Ry

     The total energy is F=E-TS. E is the sum of the following terms:
     one-electron contribution =    -145.82066172 Ry
     hartree contribution      =      74.93555859 Ry
     xc contribution           =     -14.55513195 Ry
     ewald contribution        =      21.47519728 Ry
     one-center paw contrib.   =     -19.07617172 Ry

     total magnetization       =     2.00 Bohr mag/cell
     absolute magnetization    =     2.05 Bohr mag/cell

     convergence has been achieved in   6 iterations

     negative rho (up, down):  2.474E-03 5.974E-04

     Forces acting on atoms (cartesian axes, Ry/au):

     atom    1 type  1   force =     0.00000213    0.00000213    0.13046702
     atom    2 type  1   force =    -0.00000213   -0.00000213   -0.13046702

     Total force =     0.184508     Total SCF correction =     0.002461
     Energy error            =      3.4E-03 Ry
     Gradient error          =      1.3E-01 Ry/Bohr

     number of scf cycles    =   2
     number of bfgs steps    =   1

     energy             old  =     -83.0445653643 Ry
     energy             new  =     -83.0412095272 Ry

     CASE: energy            _new > energy            _old

     new trust radius        =       0.0214256592 bohr
     new conv_thr            =       0.0000010000 Ry


ATOMIC_POSITIONS (angstrom)
O             9.9999999619       10.0000008005       10.6116400295
O            10.0000000381        9.9999991995        9.3883599705



     Writing config-only to output data dir ./pwscf.save/
     NEW-OLD atomic charge density approx. for the potential

     negative rho (up, down):  1.628E-03 1.621E-03
     Generating pointlists ...

     total cpu time spent up to now is       98.5 secs

     Self-consistent Calculation

     iteration #  1     ecut=    60.00 Ry     beta= 0.70
     Davidson diagonalization with overlap
     ethr =  1.00E-06,  avg # of iterations =  7.0

     negative rho (up, down):  2.480E-03 1.185E-03

     total cpu time spent up to now is      104.9 secs

     total energy              =     -83.04570348 Ry
     estimated scf accuracy    <       0.00122524 Ry

     total magnetization       =     2.00 Bohr mag/cell
     absolute magnetization    =     2.05 Bohr mag/cell

     iteration #  2     ecut=    60.00 Ry     beta= 0.70
     Davidson diagonalization with overlap
     ethr =  1.02E-05,  avg # of iterations =  2.0

     negative rho (up, down):  2.408E-03 7.344E-04

     total cpu time spent up to now is      110.2 secs

     total energy              =     -83.04597252 Ry
     estimated scf accuracy    <       0.00018201 Ry

     total magnetization       =     2.00 Bohr mag/cell
     absolute magnetization    =     2.05 Bohr mag/cell

     iteration #  3     ecut=    60.00 Ry     beta= 0.70
     Davidson diagonalization with overlap
     ethr =  1.52E-06,  avg # of iterations =  2.0

     negative rho (up, down):  2.417E-03 6.516E-04

     total cpu time spent up to now is      115.4 secs

     total energy              =     -83.04599526 Ry
     estimated scf accuracy    <       0.00009911 Ry

     total magnetization       =     2.00 Bohr mag/cell
     absolute magnetization    =     2.05 Bohr mag/cell

     iteration #  4     ecut=    60.00 Ry     beta= 0.70
     Davidson diagonalization with overlap
     ethr =  8.26E-07,  avg # of iterations =  1.5

     negative rho (up, down):  2.444E-03 5.676E-04

     total cpu time spent up to now is      120.7 secs

     total energy              =     -83.04601857 Ry
     estimated scf accuracy    <       0.00001199 Ry

     total magnetization       =     2.00 Bohr mag/cell
     absolute magnetization    =     2.05 Bohr mag/cell

     iteration #  5     ecut=    60.00 Ry     beta= 0.70
     Davidson diagonalization with overlap
     ethr =  9.99E-08,  avg # of iterations =  1.5

     negative rho (up, down):  2.444E-03 5.622E-04
 
     Magnetic moment per site  (integrated on atomic sphere of radius R)
     atom   1 (R=0.024)  charge=  2.7813  magn=  0.5382
     atom   2 (R=0.024)  charge=  2.7810  magn=  0.5382

     total cpu time spent up to now is      125.0 secs

     End of self-consistent calculation

 ------ SPIN UP ------------


          k = 0.0000 0.0000 0.0000 (423701 PWs)   bands (ev):

   -32.6598 -20.6288 -13.4821 -13.3957 -13.3957  -6.9223  -6.9223  -0.3094
    -0.0277   0.1205

 ------ SPIN DOWN ----------


          k = 0.0000 0.0000 0.0000 (423701 PWs)   bands (ev):

   -31.4641 -18.8309 -12.5863 -11.5296 -11.5296  -4.6107  -4.6107  -0.2261
     0.0519   0.1848

     the Fermi energy is    -5.8035 ev

!    total energy              =     -83.04602026 Ry
     total all-electron energy =      -300.739805 Ry
     estimated scf accuracy    <       0.00000027 Ry
     smearing contrib. (-TS)   =      -0.00000000 Ry
     internal energy E=F+TS    =     -83.04602026 Ry

     The total energy is F=E-TS. E is the sum of the following terms:
     one-electron contribution =    -143.80206948 Ry
     hartree contribution      =      73.96822438 Ry
     xc contribution           =     -14.47860285 Ry
     ewald contribution        =      20.35108163 Ry
     one-center paw contrib.   =     -19.08465394 Ry

     total magnetization       =     2.00 Bohr mag/cell
     absolute magnetization    =     2.05 Bohr mag/cell

     convergence has been achieved in   5 iterations

     negative rho (up, down):  2.444E-03 5.622E-04

     Forces acting on atoms (cartesian axes, Ry/au):

     atom    1 type  1   force =     0.00000105   -0.00001455   -0.00489946
     atom    2 type  1   force =    -0.00000105    0.00001455    0.00489946

     Total force =     0.006929     Total SCF correction =     0.001090
     SCF correction compared to forces is large: reduce conv_thr to get better values
     Energy error            =      1.5E-03 Ry
     Gradient error          =      4.9E-03 Ry/Bohr

     number of scf cycles    =   3
     number of bfgs steps    =   1

     energy             old  =     -83.0445653643 Ry
     energy             new  =     -83.0460202597 Ry

     CASE: energy            _new < energy            _old

     new trust radius        =       0.0018474203 bohr
     new conv_thr            =       0.0000000490 Ry


ATOMIC_POSITIONS (angstrom)
O            10.0000005721        9.9999923047       10.6106624538
O             9.9999994279       10.0000076953        9.3893375462



     Writing config-only to output data dir ./pwscf.save/
     NEW-OLD atomic charge density approx. for the potential

     negative rho (up, down):  1.491E-03 1.494E-03
     Generating pointlists ...

     total cpu time spent up to now is      133.1 secs

     Self-consistent Calculation

     iteration #  1     ecut=    60.00 Ry     beta= 0.70
     Davidson diagonalization with overlap
     ethr =  1.00E-06,  avg # of iterations =  2.0

     Threshold (ethr) on eigenvalues was too large:
     Diagonalizing with lowered threshold

     Davidson diagonalization with overlap
     ethr =  4.42E-08,  avg # of iterations =  3.0

     negative rho (up, down):  2.245E-03 7.675E-04

     total cpu time spent up to now is      140.2 secs

     total energy              =     -83.04602553 Ry
     estimated scf accuracy    <       0.00000538 Ry

     total magnetization       =     2.00 Bohr mag/cell
     absolute magnetization    =     2.05 Bohr mag/cell

     iteration #  2     ecut=    60.00 Ry     beta= 0.70
     Davidson diagonalization with overlap
     ethr =  4.48E-08,  avg # of iterations =  3.5

     negative rho (up, down):  2.325E-03 6.866E-04

     total cpu time spent up to now is      145.0 secs

     total energy              =     -83.04602526 Ry
     estimated scf accuracy    <       0.00001127 Ry

     total magnetization       =     2.00 Bohr mag/cell
     absolute magnetization    =     2.05 Bohr mag/cell

     iteration #  3     ecut=    60.00 Ry     beta= 0.70
     Davidson diagonalization with overlap
     ethr =  4.48E-08,  avg # of iterations =  3.0

     negative rho (up, down):  2.388E-03 6.216E-04

     total cpu time spent up to now is      149.7 secs

     total energy              =     -83.04602754 Ry
     estimated scf accuracy    <       0.00000119 Ry

     total magnetization       =     2.00 Bohr mag/cell
     absolute magnetization    =     2.05 Bohr mag/cell

     iteration #  4     ecut=    60.00 Ry     beta= 0.70
     Davidson diagonalization with overlap
     ethr =  9.90E-09,  avg # of iterations =  2.0

     negative rho (up, down):  2.446E-03 5.634E-04
 
     Magnetic moment per site  (integrated on atomic sphere of radius R)
     atom   1 (R=0.024)  charge=  2.7824  magn=  0.5383
     atom   2 (R=0.024)  charge=  2.7825  magn=  0.5382

     total cpu time spent up to now is      153.9 secs

     End of self-consistent calculation

 ------ SPIN UP ------------


          k = 0.0000 0.0000 0.0000 (423701 PWs)   bands (ev):

   -32.7029 -20.6160 -13.4906 -13.4152 -13.4152  -6.9094  -6.9094  -0.3101
    -0.0286   0.1203

 ------ SPIN DOWN ----------


          k = 0.0000 0.0000 0.0000 (423701 PWs)   bands (ev):

   -31.5100 -18.8167 -12.5912 -11.5496 -11.5496  -4.5973  -4.5973  -0.2247
     0.0533   0.1865

     the Fermi energy is    -5.8102 ev

!    total energy              =     -83.04602772 Ry
     total all-electron energy =      -300.739813 Ry
     estimated scf accuracy    <       0.00000001 Ry
     smearing contrib. (-TS)   =      -0.00000000 Ry
     internal energy E=F+TS    =     -83.04602772 Ry

     The total energy is F=E-TS. E is the sum of the following terms:
     one-electron contribution =    -143.89341077 Ry
     hartree contribution      =      74.01304719 Ry
     xc contribution           =     -14.48224131 Ry
     ewald contribution        =      20.40089395 Ry
     one-center paw contrib.   =     -19.08431678 Ry

     total magnetization       =     2.00 Bohr mag/cell
     absolute magnetization    =     2.05 Bohr mag/cell

     convergence has been achieved in   4 iterations

     negative rho (up, down):  2.446E-03 5.634E-04

     Forces acting on atoms (cartesian axes, Ry/au):

     atom    1 type  1   force =    -0.00000029    0.00000113    0.00080179
     atom    2 type  1   force =     0.00000029   -0.00000113   -0.00080179

     Total force =     0.001134     Total SCF correction =     0.000216
     SCF correction compared to forces is large: reduce conv_thr to get better values
     Energy error            =      7.5E-06 Ry
     Gradient error          =      8.0E-04 Ry/Bohr

     bfgs converged in   4 scf cycles and   2 bfgs steps
     (criteria: energy <  1.0E-04 Ry, force <  1.0E-03 Ry/Bohr)

     End of BFGS Geometry Optimization

     Final energy             =     -83.0460277239 Ry

     File ./pwscf.bfgs deleted, as requested
Begin final coordinates

ATOMIC_POSITIONS (angstrom)
O            10.0000005721        9.9999923047       10.6106624538
O             9.9999994279       10.0000076953        9.3893375462
End final coordinates



     Writing all to output data dir ./pwscf.save/
 
     init_run     :      8.13s CPU      9.08s WALL (       1 calls)
     electrons    :    106.93s CPU    127.70s WALL (       4 calls)
     update_pot   :      7.16s CPU      8.06s WALL (       3 calls)
     forces       :      8.71s CPU     10.36s WALL (       4 calls)

     Called by init_run:
     wfcinit      :      0.30s CPU      0.33s WALL (       1 calls)
     potinit      :      1.46s CPU      1.94s WALL (       1 calls)
     hinit0       :      0.43s CPU      0.50s WALL (       1 calls)

     Called by electrons:
     c_bands      :     24.29s CPU     25.68s WALL (      24 calls)
     sum_band     :     27.75s CPU     33.70s WALL (      24 calls)
     v_of_rho     :     37.82s CPU     43.28s WALL (      27 calls)
     newd         :     10.32s CPU     14.90s WALL (      27 calls)
     PAW_pot      :      0.54s CPU      0.56s WALL (      30 calls)
     mix_rho      :      6.91s CPU      7.67s WALL (      24 calls)

     Called by c_bands:
     init_us_2    :      0.29s CPU      0.31s WALL (     112 calls)
     init_us_2:cp :      0.29s CPU      0.31s WALL (     112 calls)
     cegterg      :     22.50s CPU     23.85s WALL (      48 calls)

     Called by *egterg:
     cdiaghg      :      0.07s CPU      0.07s WALL (     241 calls)
     h_psi        :     18.95s CPU     20.24s WALL (     251 calls)
     s_psi        :      0.35s CPU      0.35s WALL (     251 calls)
     g_psi        :      0.08s CPU      0.08s WALL (     201 calls)

     Called by h_psi:
     h_psi:calbec :      0.42s CPU      0.42s WALL (     251 calls)
     vloc_psi     :     18.02s CPU     19.28s WALL (     251 calls)
     add_vuspsi   :      0.37s CPU      0.38s WALL (     251 calls)

     General routines
     calbec       :      0.60s CPU      0.61s WALL (     337 calls)
     fft          :     36.15s CPU     40.24s WALL (     732 calls)
     ffts         :      1.34s CPU      1.53s WALL (     102 calls)
     fftw         :     16.48s CPU     17.87s WALL (    3392 calls)
     interpolate  :      3.27s CPU      3.63s WALL (      54 calls)
 
     Parallel routines
 
     PWSCF        :   2m13.85s CPU   2m40.38s WALL

 
   This run was terminated on:  10: 5:23  31May2023            

=------------------------------------------------------------------------------=
   JOB DONE.
=------------------------------------------------------------------------------=
