
     Program PWSCF v.7.2 starts on  3May2023 at 23: 2:34 

     This program is part of the open-source Quantum ESPRESSO suite
     for quantum simulation of materials; please cite
         "P. Giannozzi et al., J. Phys.:Condens. Matter 21 395502 (2009);
         "P. Giannozzi et al., J. Phys.:Condens. Matter 29 465901 (2017);
         "P. Giannozzi et al., J. Chem. Phys. 152 154105 (2020);
          URL http://www.quantum-espresso.org", 
     in publications or presentations arising from this work. More details at
     http://www.quantum-espresso.org/quote

     Parallel version (MPI), running on     8 processors

     MPI processes distributed on     1 nodes
     10484 MiB available memory on the printing compute node when the environment starts

     Waiting for input...
     Reading input from standard input

     Current dimensions of program PWSCF are:
     Max number of different atomic species (ntypx) = 10
     Max number of k-points (npk) =  40000
     Max angular momentum in pseudopotentials (lmaxx) =  4
     file Pt.pbe-n-kjpaw_psl.1.0.0.UPF: wavefunction(s)  6S 5D renormalized
     Found identity + (  0.0000 -0.5000 -0.5000) symmetry
     This is a supercell, fractional translations are disabled
     Message from routine setup:
     using ibrav=0 with symmetry is DISCOURAGED, use correct ibrav instead

     R & G space division:  proc/nbgrp/npool/nimage =       8
     Subspace diagonalization in iterative solution of the eigenvalue problem:
     a serial algorithm will be used


     Parallelization info
     --------------------
     sticks:   dense  smooth     PW     G-vecs:    dense   smooth      PW
     Min          54      54     17                  845      845     153
     Max          55      55     18                  846      846     156
     Sum         437     437    137                 6763     6763    1237

     Using Slab Decomposition


     Title: 
     Pt                                                                         


     bravais-lattice index     =            0
     lattice parameter (alat)  =       7.3699  a.u.
     unit-cell volume          =     400.3045 (a.u.)^3
     number of atoms/cell      =            4
     number of atomic types    =            1
     number of electrons       =        40.00
     number of Kohn-Sham states=           24
     kinetic-energy cutoff     =      25.0000  Ry
     charge density cutoff     =     100.0000  Ry
     scf convergence threshold =      1.0E-06
     mixing beta               =       0.7000
     number of iterations used =            8  plain     mixing
     energy convergence thresh.=      1.0E-05
     force convergence thresh. =      1.0E-03
     press convergence thresh. =      5.0E-01
     Exchange-correlation= SLA  PW   PBX  PBC
                           (   1   4   3   4   0   0   0)
     nstep                     =           50


     celldm(1)=   7.369932  celldm(2)=   0.000000  celldm(3)=   0.000000
     celldm(4)=   0.000000  celldm(5)=   0.000000  celldm(6)=   0.000000

     crystal axes: (cart. coord. in units of alat)
               a(1) = (   1.000000   0.000000   0.000000 )  
               a(2) = (   0.000000   1.000000   0.000000 )  
               a(3) = (   0.000000   0.000000   1.000000 )  

     reciprocal axes: (cart. coord. in units 2 pi/alat)
               b(1) = (  1.000000  0.000000  0.000000 )  
               b(2) = (  0.000000  1.000000  0.000000 )  
               b(3) = (  0.000000  0.000000  1.000000 )  


     PseudoPot. # 1 for Pt read from file:
     /home/hham/.pseudopot/Pt.pbe-n-kjpaw_psl.1.0.0.UPF
     MD5 check sum: 2c88029be45ba2aaa78ebf6465986627
     Pseudo is Projector augmented-wave + core cor, Zval = 10.0
     Generated using "atomic" code by A. Dal Corso  v.5.1.2
     Shape of augmentation charge: PSQ
     Using radial grid of 1277 points,  6 beta functions with: 
                l(1) =   0
                l(2) =   0
                l(3) =   1
                l(4) =   1
                l(5) =   2
                l(6) =   2
     Q(r) pseudized with 0 coefficients 


     atomic species   valence    mass     pseudopotential
        Pt            10.00   195.08400     Pt( 1.00)

     Starting magnetic structure 
     atomic species   magnetization
        Pt           1.000

     48 Sym. Ops., with inversion, found



   Cartesian axes

     site n.     atom                  positions (alat units)
         1           Pt  tau(   1) = (   0.0000000   0.0000000   0.0000000  )
         2           Pt  tau(   2) = (   0.0000000   0.5000000   0.5000000  )
         3           Pt  tau(   3) = (   0.5000000   0.0000000   0.5000000  )
         4           Pt  tau(   4) = (   0.5000000   0.5000000   0.0000000  )

     number of k points=    35  Methfessel-Paxton smearing, width (Ry)=  0.0100
                       cart. coord. in units 2pi/alat
        k(    1) = (   0.0000000   0.0000000   0.0000000), wk =   0.0013717
        k(    2) = (   0.0000000   0.0000000   0.1111111), wk =   0.0082305
        k(    3) = (   0.0000000   0.0000000   0.2222222), wk =   0.0082305
        k(    4) = (   0.0000000   0.0000000   0.3333333), wk =   0.0082305
        k(    5) = (   0.0000000   0.0000000   0.4444444), wk =   0.0082305
        k(    6) = (   0.0000000   0.1111111   0.1111111), wk =   0.0164609
        k(    7) = (   0.0000000   0.1111111   0.2222222), wk =   0.0329218
        k(    8) = (   0.0000000   0.1111111   0.3333333), wk =   0.0329218
        k(    9) = (   0.0000000   0.1111111   0.4444444), wk =   0.0329218
        k(   10) = (   0.0000000   0.2222222   0.2222222), wk =   0.0164609
        k(   11) = (   0.0000000   0.2222222   0.3333333), wk =   0.0329218
        k(   12) = (   0.0000000   0.2222222   0.4444444), wk =   0.0329218
        k(   13) = (   0.0000000   0.3333333   0.3333333), wk =   0.0164609
        k(   14) = (   0.0000000   0.3333333   0.4444444), wk =   0.0329218
        k(   15) = (   0.0000000   0.4444444   0.4444444), wk =   0.0164609
        k(   16) = (   0.1111111   0.1111111   0.1111111), wk =   0.0109739
        k(   17) = (   0.1111111   0.1111111   0.2222222), wk =   0.0329218
        k(   18) = (   0.1111111   0.1111111   0.3333333), wk =   0.0329218
        k(   19) = (   0.1111111   0.1111111   0.4444444), wk =   0.0329218
        k(   20) = (   0.1111111   0.2222222   0.2222222), wk =   0.0329218
        k(   21) = (   0.1111111   0.2222222   0.3333333), wk =   0.0658436
        k(   22) = (   0.1111111   0.2222222   0.4444444), wk =   0.0658436
        k(   23) = (   0.1111111   0.3333333   0.3333333), wk =   0.0329218
        k(   24) = (   0.1111111   0.3333333   0.4444444), wk =   0.0658436
        k(   25) = (   0.1111111   0.4444444   0.4444444), wk =   0.0329218
        k(   26) = (   0.2222222   0.2222222   0.2222222), wk =   0.0109739
        k(   27) = (   0.2222222   0.2222222   0.3333333), wk =   0.0329218
        k(   28) = (   0.2222222   0.2222222   0.4444444), wk =   0.0329218
        k(   29) = (   0.2222222   0.3333333   0.3333333), wk =   0.0329218
        k(   30) = (   0.2222222   0.3333333   0.4444444), wk =   0.0658436
        k(   31) = (   0.2222222   0.4444444   0.4444444), wk =   0.0329218
        k(   32) = (   0.3333333   0.3333333   0.3333333), wk =   0.0109739
        k(   33) = (   0.3333333   0.3333333   0.4444444), wk =   0.0329218
        k(   34) = (   0.3333333   0.4444444   0.4444444), wk =   0.0329218
        k(   35) = (   0.4444444   0.4444444   0.4444444), wk =   0.0109739

     Dense  grid:     6763 G-vectors     FFT dimensions: (  24,  24,  24)

     Estimated max dynamical RAM per process >       7.86 MB

     Estimated total dynamical RAM >      62.90 MB
     Generating pointlists ...
     new r_m :   0.2917 (alat units)  2.1497 (a.u.) for type    1

     Initial potential from superposition of free atoms

     starting charge      39.9993, renormalised to      40.0000
     Starting wfcs are   36 randomized atomic wfcs
     Checking if some PAW data can be deallocated... 

     total cpu time spent up to now is        1.1 secs

     Self-consistent Calculation

     iteration #  1     ecut=    25.00 Ry     beta= 0.70
     Davidson diagonalization with overlap
     ethr =  1.00E-02,  avg # of iterations =  2.0

     total cpu time spent up to now is        1.8 secs

     total energy              =   -2988.35201931 Ry
     estimated scf accuracy    <       1.81605451 Ry

     total magnetization       =     6.66 Bohr mag/cell
     absolute magnetization    =     6.66 Bohr mag/cell

     iteration #  2     ecut=    25.00 Ry     beta= 0.70
     Davidson diagonalization with overlap
     ethr =  4.54E-03,  avg # of iterations =  1.1

     total cpu time spent up to now is        2.5 secs

     total energy              =   -2989.06246891 Ry
     estimated scf accuracy    <       0.25942066 Ry

     total magnetization       =     3.75 Bohr mag/cell
     absolute magnetization    =     3.87 Bohr mag/cell

     iteration #  3     ecut=    25.00 Ry     beta= 0.70
     Davidson diagonalization with overlap
     ethr =  6.49E-04,  avg # of iterations =  1.9

     total cpu time spent up to now is        3.2 secs

     total energy              =   -2989.13361346 Ry
     estimated scf accuracy    <       0.00912905 Ry

     total magnetization       =     2.34 Bohr mag/cell
     absolute magnetization    =     2.59 Bohr mag/cell

     iteration #  4     ecut=    25.00 Ry     beta= 0.70
     Davidson diagonalization with overlap
     ethr =  2.28E-05,  avg # of iterations =  6.7

     total cpu time spent up to now is        4.7 secs

     total energy              =   -2989.14359468 Ry
     estimated scf accuracy    <       0.04998055 Ry

     total magnetization       =     1.57 Bohr mag/cell
     absolute magnetization    =     1.73 Bohr mag/cell

     iteration #  5     ecut=    25.00 Ry     beta= 0.70
     Davidson diagonalization with overlap
     ethr =  2.28E-05,  avg # of iterations =  2.1

     total cpu time spent up to now is        5.5 secs

     total energy              =   -2989.14900532 Ry
     estimated scf accuracy    <       0.00119296 Ry

     total magnetization       =     1.46 Bohr mag/cell
     absolute magnetization    =     1.60 Bohr mag/cell

     iteration #  6     ecut=    25.00 Ry     beta= 0.70
     Davidson diagonalization with overlap
     ethr =  2.98E-06,  avg # of iterations =  4.1

     total cpu time spent up to now is        6.4 secs

     total energy              =   -2989.15115569 Ry
     estimated scf accuracy    <       0.00137309 Ry

     total magnetization       =     1.53 Bohr mag/cell
     absolute magnetization    =     1.68 Bohr mag/cell

     iteration #  7     ecut=    25.00 Ry     beta= 0.70
     Davidson diagonalization with overlap
     ethr =  2.98E-06,  avg # of iterations =  3.0

     total cpu time spent up to now is        7.3 secs

     total energy              =   -2989.15151662 Ry
     estimated scf accuracy    <       0.00364286 Ry

     total magnetization       =     1.07 Bohr mag/cell
     absolute magnetization    =     1.19 Bohr mag/cell

     iteration #  8     ecut=    25.00 Ry     beta= 0.70
     Davidson diagonalization with overlap
     ethr =  2.98E-06,  avg # of iterations =  3.2

     total cpu time spent up to now is        8.2 secs

     total energy              =   -2989.15544297 Ry
     estimated scf accuracy    <       0.00293857 Ry

     total magnetization       =     0.24 Bohr mag/cell
     absolute magnetization    =     0.29 Bohr mag/cell

     iteration #  9     ecut=    25.00 Ry     beta= 0.70
     Davidson diagonalization with overlap
     ethr =  2.98E-06,  avg # of iterations =  2.0

     total cpu time spent up to now is        9.0 secs

     total energy              =   -2989.15546270 Ry
     estimated scf accuracy    <       0.00120377 Ry

     total magnetization       =    -0.01 Bohr mag/cell
     absolute magnetization    =     0.04 Bohr mag/cell

     iteration # 10     ecut=    25.00 Ry     beta= 0.70
     Davidson diagonalization with overlap
     ethr =  2.98E-06,  avg # of iterations =  1.1

     total cpu time spent up to now is        9.7 secs

     total energy              =   -2989.15564868 Ry
     estimated scf accuracy    <       0.00002869 Ry

     total magnetization       =     0.14 Bohr mag/cell
     absolute magnetization    =     0.16 Bohr mag/cell

     iteration # 11     ecut=    25.00 Ry     beta= 0.70
     Davidson diagonalization with overlap
     ethr =  7.17E-08,  avg # of iterations =  7.4

     total cpu time spent up to now is       11.7 secs

     total energy              =   -2989.15584060 Ry
     estimated scf accuracy    <       0.00000530 Ry

     total magnetization       =    -0.01 Bohr mag/cell
     absolute magnetization    =     0.01 Bohr mag/cell

     iteration # 12     ecut=    25.00 Ry     beta= 0.70
     Davidson diagonalization with overlap
     ethr =  1.33E-08,  avg # of iterations =  3.3

     total cpu time spent up to now is       12.6 secs

     total energy              =   -2989.15584170 Ry
     estimated scf accuracy    <       0.00000272 Ry

     total magnetization       =    -0.03 Bohr mag/cell
     absolute magnetization    =     0.03 Bohr mag/cell

     iteration # 13     ecut=    25.00 Ry     beta= 0.70
     Davidson diagonalization with overlap
     ethr =  6.80E-09,  avg # of iterations =  2.0

     Magnetic moment per site  (integrated on atomic sphere of radius R)
     atom   1 (R=0.292)  charge=  8.0956  magn= -0.0010
     atom   2 (R=0.292)  charge=  8.0946  magn= -0.0005
     atom   3 (R=0.292)  charge=  8.0946  magn= -0.0005
     atom   4 (R=0.292)  charge=  8.0946  magn= -0.0005

     total cpu time spent up to now is       13.4 secs

     End of self-consistent calculation

 ------ SPIN UP ------------


          k = 0.0000 0.0000 0.0000 (   847 PWs)   bands (ev):

     7.7428  10.9174  10.9174  10.9178  11.3900  11.3900  11.3900  14.2930
    14.2930  14.2930  16.5049  16.5049  18.1924  18.1924  18.1925  18.6990
    18.6990  18.6990  18.6995  18.6995  18.6995  19.9468  19.9468  19.9468

          k = 0.0000 0.0000 0.1111 (   843 PWs)   bands (ev):

     7.9110  10.9824  11.0435  11.0438  11.4614  11.5003  11.5003  14.1807
    14.3811  14.3811  16.3792  16.5502  17.6763  17.6763  18.0034  18.0034
    18.1352  18.4763  18.4763  18.7018  18.7022  19.1225  21.0607  21.0607

          k = 0.0000 0.0000 0.2222 (   844 PWs)   bands (ev):

     8.4030  11.1353  11.3947  11.3951  11.6684  11.8207  11.8207  13.8700
    14.6445  14.6445  16.0338  16.3234  16.3234  16.6831  17.4765  17.4765
    17.4976  17.8947  17.8947  17.9730  18.7026  18.7030  22.6683  22.6683

          k = 0.0000 0.0000 0.3333 (   836 PWs)   bands (ev):

     9.1715  11.2061  11.8848  11.8852  11.9985  12.3456  12.3456  13.4256
    15.0753  15.0753  15.0774  15.0774  15.5669  16.0036  16.7734  16.7735
    16.8916  17.1396  17.1396  17.7316  18.7054  18.7058  24.3138  24.3139

          k = 0.0000 0.0000 0.4444 (   844 PWs)   bands (ev):

    10.0952  10.8902  12.2945  12.2949  12.4282  12.9219  13.0699  13.0699
    13.9856  13.9856  15.1680  15.1849  15.6578  15.6578  16.2171  16.2172
    16.3633  16.3633  17.1549  17.4464  18.7054  18.7058  25.5453  25.5455

          k = 0.0000 0.1111 0.1111 (   841 PWs)   bands (ev):

     8.0757  11.1107  11.1110  11.1453  11.5678  11.5678  11.6216  14.1288
    14.4153  14.4549  16.3461  16.5235  17.1963  17.2894  17.2898  17.8384
    18.0064  18.0064  18.4755  18.4755  18.5590  20.3264  20.3265  21.7722

          k = 0.0000 0.1111 0.2222 (   841 PWs)   bands (ev):

     8.5573  11.2680  11.4394  11.4688  11.7678  11.8811  11.9664  13.8624
    14.6506  14.6650  15.9758  16.0635  16.1377  16.4149  16.6594  17.3693
    17.5236  17.7920  17.8928  18.4751  18.4846  19.0749  21.7904  23.1711

          k = 0.0000 0.1111 0.3333 (   845 PWs)   bands (ev):

     9.3100  11.3427  11.8943  11.9711  12.0864  12.3920  12.4732  13.4466
    14.7915  14.9214  15.0089  15.0747  15.4083  15.7329  16.7288  16.8610
    16.9187  17.1366  17.2492  18.1800  18.4674  18.4721  23.0911  25.0184

          k = 0.0000 0.1111 0.4444 (   838 PWs)   bands (ev):

    10.2198  11.0177  12.3597  12.3986  12.4987  12.9693  13.0494  13.0953
    13.7930  13.9765  14.8298  14.8637  15.6550  15.9003  16.2357  16.2966
    16.3598  16.5168  17.2578  17.6604  18.4671  18.4687  24.0088  24.5447

          k = 0.0000 0.2222 0.2222 (   838 PWs)   bands (ev):

     9.0077  11.6213  11.6440  11.6443  12.0579  12.0580  12.3366  13.7545
    14.7254  14.7722  15.2389  15.2392  15.5827  15.9777  16.7799  17.0439
    17.4147  17.4148  17.8879  17.8880  18.1562  20.3647  20.3649  24.6020

          k = 0.0000 0.2222 0.3333 (   850 PWs)   bands (ev):

     9.7121  11.7326  11.9715  12.1888  12.3367  12.5277  12.7884  13.4732
    14.1982  14.5237  14.7424  14.7839  15.1217  15.7903  16.5593  16.8668
    16.9982  17.1309  17.1693  17.8812  17.9758  19.1957  21.5036  23.7134

          k = 0.0000 0.2222 0.4444 (   845 PWs)   bands (ev):

    10.5743  11.3732  12.4788  12.6941  12.6943  13.0817  13.0922  13.1650
    13.3584  13.9369  14.2778  14.5137  15.6689  15.9321  16.2035  16.3467
    16.3592  16.4150  17.7074  17.8824  17.9034  18.3579  22.3949  23.0565

          k = 0.0000 0.3333 0.3333 (   848 PWs)   bands (ev):

    10.3351  12.1697  12.3028  12.3030  12.7370  12.7371  13.1541  13.4159
    13.7323  13.7325  14.3778  14.6027  15.3304  15.6266  16.2414  16.5636
    16.5639  17.1343  17.1345  17.5430  17.7280  20.2221  20.2223  22.6396

          k = 0.0000 0.3333 0.4444 (   844 PWs)   bands (ev):

    11.0986  11.8612  12.5010  12.7994  12.9893  13.1910  13.2375  13.2550
    13.3177  13.8333  13.8657  14.3002  15.6709  15.7658  15.9843  16.0647
    16.1296  16.3930  17.1717  17.2873  18.4383  19.2449  21.1041  21.8494

          k = 0.0000 0.4444 0.4444 (   856 PWs)   bands (ev):

    11.6947  12.2729  12.2730  12.4484  13.3266  13.3268  13.3291  13.5907
    13.6289  13.6926  13.6926  14.1014  15.4937  15.6930  15.7201  15.7205
    16.0338  16.5170  16.5173  16.8030  19.2570  20.1124  20.1127  20.9334

          k = 0.1111 0.1111 0.1111 (   835 PWs)   bands (ev):

     8.2358  11.2107  11.2107  11.2112  11.6899  11.6899  11.6900  14.0892
    14.4790  14.4790  16.4148  16.4148  16.8663  16.8666  16.8666  17.6462
    17.6462  17.6463  18.5194  18.5194  18.5196  20.9789  20.9790  20.9790

          k = 0.1111 0.1111 0.2222 (   837 PWs)   bands (ev):

     8.7038  11.3634  11.5015  11.5018  11.8898  12.0335  12.0336  13.8665
    14.6546  14.6706  15.8332  15.8333  16.0376  16.1364  16.6129  17.1736
    17.2539  17.2540  18.3573  18.4299  18.4302  19.5397  22.2142  22.2142

          k = 0.1111 0.1111 0.3333 (   841 PWs)   bands (ev):

     9.4346  11.4328  11.9550  11.9553  12.2031  12.5295  12.5296  13.4865
    14.7677  14.7677  14.8585  14.9899  15.1189  15.9222  16.5781  16.7227
    16.7228  16.9171  18.0665  18.1873  18.3449  18.3453  23.4207  23.4207

          k = 0.1111 0.1111 0.4444 (   844 PWs)   bands (ev):

    10.3195  11.1039  12.4484  12.4488  12.5982  12.9950  12.9952  13.0412
    13.9078  13.9079  14.6409  14.7313  15.4305  15.9733  16.2473  16.2475
    16.2644  17.0801  17.2921  17.6928  18.3068  18.3072  24.1939  24.1940

          k = 0.1111 0.2222 0.2222 (   845 PWs)   bands (ev):

     9.1305  11.6378  11.6381  11.6593  12.2354  12.2355  12.4085  13.7977
    14.7107  14.7326  15.1468  15.1471  15.3591  16.1423  16.7056  16.7883
    16.8520  16.8520  18.2704  18.2704  18.2769  20.6230  20.6232  23.1728

          k = 0.1111 0.2222 0.3333 (   850 PWs)   bands (ev):

     9.7938  11.6784  11.9796  12.0669  12.5476  12.7187  12.8396  13.5704
    14.2630  14.4718  14.6669  14.7196  14.9475  16.0832  16.2879  16.3678
    16.5141  17.1105  17.8930  18.0706  18.0757  19.2246  21.7147  23.9781

          k = 0.1111 0.2222 0.4444 (   842 PWs)   bands (ev):

    10.5976  11.3331  12.4499  12.5825  12.8973  12.9224  12.9852  13.2454
    13.8253  14.0940  14.2464  14.4855  15.2785  15.7340  16.0563  16.1409
    16.4595  17.1969  17.6431  17.9475  17.9493  18.2808  22.6099  23.3205

          k = 0.1111 0.3333 0.3333 (   852 PWs)   bands (ev):

    10.3419  12.0173  12.0175  12.1009  13.0583  13.0584  13.1553  13.6029
    13.8546  13.8548  14.4625  14.6004  14.9813  15.9715  16.0517  16.0518
    16.0837  17.6435  17.6436  17.6539  17.7701  20.2548  20.2550  22.8662

          k = 0.1111 0.3333 0.4444 (   838 PWs)   bands (ev):

    10.9967  11.6242  12.2831  12.3059  13.2468  13.2610  13.3711  13.5261
    13.8326  13.9034  14.2207  14.3123  15.1611  15.5444  15.7175  15.7959
    16.3823  17.0063  17.4861  17.5301  18.3578  19.1786  21.1620  21.9675

          k = 0.1111 0.4444 0.4444 (   845 PWs)   bands (ev):

    11.4436  11.8885  11.8885  12.0955  13.5172  13.6831  13.6832  13.7386
    13.9146  13.9148  14.1644  14.2180  15.1171  15.3669  15.3671  15.3983
    16.4871  16.9276  16.9277  17.1256  19.1767  20.0647  20.0651  20.9401

          k = 0.2222 0.2222 0.2222 (   844 PWs)   bands (ev):

     9.4851  11.7184  11.7184  11.7187  12.6359  12.6359  12.6362  13.8664
    14.6945  14.6945  14.8322  14.8325  14.8325  16.2780  16.2780  16.2781
    16.5444  16.5444  18.3922  18.3922  18.3925  21.3419  21.3420  21.3420

          k = 0.2222 0.2222 0.3333 (   845 PWs)   bands (ev):

    10.0280  11.6428  11.9240  11.9242  13.0077  13.0364  13.0367  13.8303
    14.3222  14.4332  14.4334  14.6511  14.7547  15.7461  15.9320  15.9322
    16.5491  17.0535  18.2160  18.2162  18.3113  19.5929  22.2344  22.2344

          k = 0.2222 0.2222 0.4444 (   844 PWs)   bands (ev):

    10.6749  11.2785  12.1693  12.1694  13.0987  13.0991  13.4103  13.6737
    14.1615  14.3673  14.3674  14.4069  14.9515  15.2885  15.6926  15.6928
    17.0727  17.5737  18.0162  18.0164  18.0198  18.1324  23.0343  23.0346

          k = 0.2222 0.3333 0.3333 (   847 PWs)   bands (ev):

    10.3843  11.6830  11.6831  11.8425  13.2938  13.4157  13.4159  14.1169
    14.2704  14.2706  14.5792  14.6567  14.6571  15.4474  15.4474  15.4783
    16.7157  17.4677  18.1171  18.1627  18.1628  20.3975  20.3977  22.6210

          k = 0.2222 0.3333 0.4444 (   847 PWs)   bands (ev):

    10.8210  11.2817  11.7528  11.8027  13.4007  13.4514  13.9028  14.2306
    14.2326  14.3476  14.6162  14.7560  14.8257  15.0340  15.2397  15.2739
    17.0926  17.7574  17.9189  17.9264  18.1275  19.0009  21.2359  22.0361

          k = 0.2222 0.4444 0.4444 (   851 PWs)   bands (ev):

    11.0491  11.3643  11.3643  11.5347  13.6819  13.8525  13.8526  14.1572
    14.6780  14.7478  14.7481  14.7797  14.9292  14.9654  14.9654  15.0722
    17.1351  17.5477  17.5478  17.6538  18.9260  19.8857  19.8859  20.8320

          k = 0.3333 0.3333 0.3333 (   856 PWs)   bands (ev):

    10.5043  11.4491  11.4491  11.4492  13.6157  13.6157  13.6160  14.4917
    14.4917  14.7962  14.8919  14.8920  14.8920  15.0193  15.0193  15.0194
    17.3418  17.3418  18.2949  18.2949  18.2951  20.6890  20.6890  20.6890

          k = 0.3333 0.3333 0.4444 (   851 PWs)   bands (ev):

    10.7263  11.0527  11.3332  11.3332  13.7012  13.7015  13.9977  14.3087
    14.4998  14.6809  14.8074  14.8076  15.1250  15.1997  15.4105  15.4106
    17.7450  17.8712  18.1458  18.1460  18.2109  18.9646  20.9715  20.9717

          k = 0.3333 0.4444 0.4444 (   859 PWs)   bands (ev):

    10.7727  10.9779  10.9779  11.0726  13.9224  14.0196  14.0196  14.2544
    14.3807  14.5070  14.5071  14.5455  15.8858  15.8859  15.9385  15.9688
    17.7149  18.0507  18.0507  18.0693  18.5030  19.4994  19.4996  20.2302

          k = 0.4444 0.4444 0.4444 (   861 PWs)   bands (ev):

    10.6781  10.7789  10.7789  10.7789  14.1383  14.1383  14.1384  14.2563
    14.2563  14.3130  14.3130  14.3131  16.8018  16.8018  16.8020  17.0591
    18.1117  18.1117  18.2383  18.2383  18.2386  19.0254  19.0254  19.0255

 ------ SPIN DOWN ----------


          k = 0.0000 0.0000 0.0000 (   847 PWs)   bands (ev):

     7.7417  10.9167  10.9167  10.9170  11.3889  11.3889  11.3889  14.2919
    14.2919  14.2919  16.5044  16.5044  18.1918  18.1918  18.1925  18.6978
    18.6978  18.6978  18.6988  18.6988  18.6988  19.9457  19.9457  19.9457

          k = 0.0000 0.0000 0.1111 (   843 PWs)   bands (ev):

     7.9099  10.9817  11.0428  11.0430  11.4603  11.4992  11.4992  14.1797
    14.3801  14.3801  16.3787  16.5498  17.6753  17.6753  18.0028  18.0032
    18.1348  18.4753  18.4753  18.7006  18.7016  19.1215  21.0597  21.0597

          k = 0.0000 0.0000 0.2222 (   844 PWs)   bands (ev):

     8.4019  11.1346  11.3940  11.3943  11.6673  11.8196  11.8196  13.8690
    14.6434  14.6434  16.0333  16.3224  16.3224  16.6826  17.4758  17.4763
    17.4967  17.8937  17.8937  17.9726  18.7014  18.7024  22.6674  22.6674

          k = 0.0000 0.0000 0.3333 (   836 PWs)   bands (ev):

     9.1704  11.2053  11.8841  11.8845  11.9974  12.3445  12.3445  13.4246
    15.0742  15.0742  15.0764  15.0764  15.5664  16.0027  16.7727  16.7733
    16.8911  17.1386  17.1386  17.7312  18.7042  18.7052  24.3128  24.3129

          k = 0.0000 0.0000 0.4444 (   844 PWs)   bands (ev):

    10.0941  10.8893  12.2938  12.2943  12.4271  12.9208  13.0689  13.0689
    13.9846  13.9846  15.1674  15.1841  15.6568  15.6568  16.2163  16.2170
    16.3623  16.3623  17.1545  17.4460  18.7041  18.7052  25.5442  25.5448

          k = 0.0000 0.1111 0.1111 (   841 PWs)   bands (ev):

     8.0746  11.1100  11.1102  11.1446  11.5667  11.5667  11.6205  14.1278
    14.4143  14.4539  16.3456  16.5230  17.1953  17.2883  17.2890  17.8380
    18.0057  18.0061  18.4745  18.4746  18.5581  20.3253  20.3257  21.7712

          k = 0.0000 0.1111 0.2222 (   841 PWs)   bands (ev):

     8.5562  11.2672  11.4386  11.4681  11.7667  11.8800  11.9654  13.8614
    14.6496  14.6640  15.9748  16.0630  16.1367  16.4140  16.6589  17.3689
    17.5231  17.7915  17.8918  18.4742  18.4837  19.0740  21.7894  23.1701

          k = 0.0000 0.1111 0.3333 (   845 PWs)   bands (ev):

     9.3089  11.3419  11.8936  11.9705  12.0853  12.3909  12.4722  13.4456
    14.7905  14.9205  15.0079  15.0736  15.4074  15.7323  16.7283  16.8605
    16.9182  17.1356  17.2485  18.1793  18.4665  18.4712  23.0902  25.0152

          k = 0.0000 0.1111 0.4444 (   838 PWs)   bands (ev):

    10.2188  11.0167  12.3590  12.3980  12.4976  12.9683  13.0484  13.0943
    13.7919  13.9755  14.8291  14.8630  15.6540  15.8995  16.2352  16.2961
    16.3589  16.5160  17.2573  17.6599  18.4660  18.4679  24.0078  24.5436

          k = 0.0000 0.2222 0.2222 (   838 PWs)   bands (ev):

     9.0066  11.6205  11.6433  11.6435  12.0568  12.0569  12.3357  13.7535
    14.7244  14.7712  15.2378  15.2384  15.5816  15.9772  16.7794  17.0434
    17.4142  17.4143  17.8869  17.8871  18.1552  20.3636  20.3642  24.5982

          k = 0.0000 0.2222 0.3333 (   850 PWs)   bands (ev):

     9.7110  11.7318  11.9707  12.1881  12.3356  12.5266  12.7876  13.4722
    14.1972  14.5228  14.7415  14.7829  15.1207  15.7898  16.5588  16.8663
    16.9977  17.1299  17.1687  17.8802  17.9748  19.1949  21.5027  23.7123

          k = 0.0000 0.2222 0.4444 (   845 PWs)   bands (ev):

    10.5733  11.3722  12.4780  12.6930  12.6936  13.0809  13.0911  13.1640
    13.3573  13.9358  14.2770  14.5129  15.6679  15.9315  16.2030  16.3462
    16.3582  16.4144  17.7068  17.8814  17.9024  18.3572  22.3939  23.0555

          k = 0.0000 0.3333 0.3333 (   848 PWs)   bands (ev):

    10.3340  12.1687  12.3021  12.3021  12.7359  12.7361  13.1533  13.4149
    13.7312  13.7318  14.3767  14.6019  15.3294  15.6261  16.2409  16.5631
    16.5633  17.1332  17.1336  17.5421  17.7273  20.2210  20.2217  22.6386

          k = 0.0000 0.3333 0.4444 (   844 PWs)   bands (ev):

    11.0976  11.8602  12.5000  12.7984  12.9883  13.1903  13.2364  13.2539
    13.3170  13.8323  13.8649  14.2995  15.6704  15.7648  15.9838  16.0642
    16.1290  16.3920  17.1707  17.2864  18.4376  19.2441  21.1032  21.8485

          k = 0.0000 0.4444 0.4444 (   856 PWs)   bands (ev):

    11.6936  12.2717  12.2720  12.4473  13.3254  13.3259  13.3280  13.5901
    13.6278  13.6917  13.6922  14.1006  15.4932  15.6924  15.7195  15.7201
    16.0328  16.5158  16.5165  16.8020  19.2563  20.1114  20.1122  20.9326

          k = 0.1111 0.1111 0.1111 (   835 PWs)   bands (ev):

     8.2347  11.2100  11.2100  11.2103  11.6888  11.6888  11.6889  14.0882
    14.4779  14.4779  16.4143  16.4143  16.8651  16.8656  16.8656  17.6455
    17.6455  17.6462  18.5184  18.5184  18.5191  20.9778  20.9782  20.9782

          k = 0.1111 0.1111 0.2222 (   837 PWs)   bands (ev):

     8.7027  11.3627  11.5007  11.5010  11.8888  12.0325  12.0326  13.8655
    14.6536  14.6696  15.8321  15.8323  16.0366  16.1359  16.6124  17.1730
    17.2531  17.2537  18.3566  18.4288  18.4296  19.5388  22.2132  22.2133

          k = 0.1111 0.1111 0.3333 (   841 PWs)   bands (ev):

     9.4335  11.4319  11.9542  11.9545  12.2020  12.5285  12.5287  13.4855
    14.7666  14.7668  14.8576  14.9889  15.1180  15.9215  16.5773  16.7219
    16.7225  16.9166  18.0659  18.1864  18.3438  18.3446  23.4197  23.4198

          k = 0.1111 0.1111 0.4444 (   844 PWs)   bands (ev):

    10.3184  11.1029  12.4476  12.4481  12.5971  12.9939  12.9942  13.0401
    13.9066  13.9070  14.6401  14.7306  15.4296  15.9725  16.2465  16.2472
    16.2636  17.0792  17.2915  17.6923  18.3056  18.3065  24.1928  24.1930

          k = 0.1111 0.2222 0.2222 (   845 PWs)   bands (ev):

     9.1294  11.6371  11.6372  11.6585  12.2344  12.2345  12.4076  13.7967
    14.7097  14.7317  15.1457  15.1462  15.3580  16.1418  16.7050  16.7878
    16.8512  16.8514  18.2695  18.2698  18.2761  20.6220  20.6224  23.1718

          k = 0.1111 0.2222 0.3333 (   850 PWs)   bands (ev):

     9.7927  11.6775  11.9787  12.0661  12.5466  12.7178  12.8387  13.5693
    14.2620  14.4709  14.6659  14.7187  14.9466  16.0826  16.2871  16.3672
    16.5135  17.1099  17.8923  18.0697  18.0748  19.2238  21.7138  23.9769

          k = 0.1111 0.2222 0.4444 (   842 PWs)   bands (ev):

    10.5965  11.3321  12.4490  12.5816  12.8962  12.9216  12.9844  13.2443
    13.8242  14.0929  14.2456  14.4847  15.2776  15.7332  16.0558  16.1404
    16.4587  17.1961  17.6424  17.9466  17.9484  18.2801  22.6090  23.3194

          k = 0.1111 0.3333 0.3333 (   852 PWs)   bands (ev):

    10.3408  12.0164  12.0165  12.1000  13.0574  13.0576  13.1546  13.6018
    13.8535  13.8540  14.4615  14.5995  14.9804  15.9709  16.0510  16.0511
    16.0831  17.6426  17.6429  17.6532  17.7693  20.2537  20.2544  22.8652

          k = 0.1111 0.3333 0.4444 (   838 PWs)   bands (ev):

    10.9956  11.6231  12.2820  12.3048  13.2461  13.2603  13.3701  13.5251
    13.8315  13.9026  14.2197  14.3116  15.1603  15.5437  15.7169  15.7952
    16.3816  17.0055  17.4852  17.5293  18.3571  19.1778  21.1611  21.9666

          k = 0.1111 0.4444 0.4444 (   845 PWs)   bands (ev):

    11.4425  11.8874  11.8875  12.0944  13.5164  13.6821  13.6825  13.7376
    13.9138  13.9139  14.1637  14.2171  15.1165  15.3662  15.3665  15.3977
    16.4862  16.9266  16.9270  17.1247  19.1759  20.0637  20.0645  20.9392

          k = 0.2222 0.2222 0.2222 (   844 PWs)   bands (ev):

     9.4840  11.7175  11.7175  11.7177  12.6350  12.6350  12.6353  13.8654
    14.6936  14.6936  14.8309  14.8316  14.8316  16.2771  16.2771  16.2778
    16.5439  16.5439  18.3913  18.3913  18.3921  21.3408  21.3412  21.3412

          k = 0.2222 0.2222 0.3333 (   845 PWs)   bands (ev):

    10.0269  11.6418  11.9230  11.9232  13.0069  13.0356  13.0360  13.8293
    14.3212  14.4320  14.4325  14.6503  14.7539  15.7454  15.9311  15.9317
    16.5484  17.0529  18.2150  18.2156  18.3106  19.5920  22.2335  22.2336

          k = 0.2222 0.2222 0.4444 (   844 PWs)   bands (ev):

    10.6738  11.2775  12.1681  12.1684  13.0980  13.0985  13.4094  13.6726
    14.1607  14.3661  14.3666  14.4061  14.9507  15.2877  15.6917  15.6924
    17.0719  17.5731  18.0152  18.0158  18.0192  18.1316  23.0336  23.0336

          k = 0.2222 0.3333 0.3333 (   847 PWs)   bands (ev):

    10.3832  11.6819  11.6820  11.8415  13.2931  13.4151  13.4152  14.1159
    14.2693  14.2697  14.5784  14.6557  14.6563  15.4465  15.4468  15.4776
    16.7150  17.4670  18.1163  18.1619  18.1622  20.3965  20.3970  22.6204

          k = 0.2222 0.3333 0.4444 (   847 PWs)   bands (ev):

    10.8199  11.2806  11.7517  11.8016  13.4000  13.4507  13.9021  14.2295
    14.2315  14.3469  14.6152  14.7552  14.8247  15.0333  15.2390  15.2732
    17.0919  17.7567  17.9181  17.9256  18.1268  19.0001  21.2351  22.0352

          k = 0.2222 0.4444 0.4444 (   851 PWs)   bands (ev):

    11.0480  11.3632  11.3632  11.5336  13.6811  13.8516  13.8521  14.1564
    14.6773  14.7469  14.7473  14.7788  14.9285  14.9645  14.9647  15.0713
    17.1343  17.5469  17.5471  17.6530  18.9253  19.8846  19.8853  20.8312

          k = 0.3333 0.3333 0.3333 (   856 PWs)   bands (ev):

    10.5032  11.4480  11.4480  11.4482  13.6151  13.6151  13.6152  14.4910
    14.4910  14.7952  14.8906  14.8911  14.8911  15.0184  15.0184  15.0190
    17.3411  17.3411  18.2940  18.2940  18.2948  20.6880  20.6883  20.6883

          k = 0.3333 0.3333 0.4444 (   851 PWs)   bands (ev):

    10.7252  11.0516  11.3320  11.3322  13.7005  13.7008  13.9970  14.3080
    14.4991  14.6801  14.8064  14.8071  15.1240  15.1987  15.4095  15.4097
    17.7443  17.8705  18.1449  18.1455  18.2102  18.9638  20.9708  20.9708

          k = 0.3333 0.4444 0.4444 (   859 PWs)   bands (ev):

    10.7715  10.9768  10.9768  11.0715  13.9216  14.0187  14.0191  14.2536
    14.3799  14.5063  14.5064  14.5448  15.8849  15.8850  15.9376  15.9679
    17.7142  18.0498  18.0501  18.0686  18.5023  19.4984  19.4990  20.2294

          k = 0.4444 0.4444 0.4444 (   861 PWs)   bands (ev):

    10.6769  10.7778  10.7778  10.7779  14.1376  14.1376  14.1376  14.2555
    14.2555  14.3121  14.3121  14.3127  16.8008  16.8010  16.8010  17.0581
    18.1110  18.1110  18.2375  18.2375  18.2382  19.0245  19.0247  19.0247

     the Fermi energy is    18.1890 ev

!    total energy              =   -2989.15584463 Ry
     total all-electron energy =   -147309.907474 Ry
     estimated scf accuracy    <       0.00000050 Ry
     smearing contrib. (-TS)   =       0.00001338 Ry
     internal energy E=F+TS    =   -2989.15585801 Ry

     The total energy is F=E-TS. E is the sum of the following terms:
     one-electron contribution =      78.13408210 Ry
     hartree contribution      =      16.37402730 Ry
     xc contribution           =     -95.84253923 Ry
     ewald contribution        =    -248.84148973 Ry
     one-center paw contrib.   =   -2738.97993845 Ry

     total magnetization       =    -0.00 Bohr mag/cell
     absolute magnetization    =     0.00 Bohr mag/cell

     convergence has been achieved in  13 iterations

     Forces acting on atoms (cartesian axes, Ry/au):

     atom    1 type  1   force =     0.00000000    0.00000000    0.00000000
     atom    2 type  1   force =     0.00000000    0.00000000    0.00000000
     atom    3 type  1   force =     0.00000000    0.00000000    0.00000000
     atom    4 type  1   force =     0.00000000    0.00000000    0.00000000
     The non-local contrib.  to forces
     atom    1 type  1   force =     0.00000000    0.00000000    0.00000000
     atom    2 type  1   force =     0.00000000    0.00000000    0.00000000
     atom    3 type  1   force =     0.00000000    0.00000000    0.00000000
     atom    4 type  1   force =     0.00000000    0.00000000    0.00000000
     The ionic contribution  to forces
     atom    1 type  1   force =    -0.00000000   -0.00000000   -0.00000000
     atom    2 type  1   force =    -0.00000000    0.00000000    0.00000000
     atom    3 type  1   force =     0.00000000   -0.00000000    0.00000000
     atom    4 type  1   force =     0.00000000    0.00000000   -0.00000000
     The local contribution  to forces
     atom    1 type  1   force =    -0.00000000   -0.00000000    0.00000000
     atom    2 type  1   force =    -0.00000000    0.00000000    0.00000000
     atom    3 type  1   force =     0.00000000   -0.00000000    0.00000000
     atom    4 type  1   force =     0.00000000    0.00000000   -0.00000000
     The core correction contribution to forces
     atom    1 type  1   force =    -0.00000000    0.00000000    0.00000000
     atom    2 type  1   force =     0.00000000    0.00000000    0.00000000
     atom    3 type  1   force =    -0.00000000    0.00000000    0.00000000
     atom    4 type  1   force =     0.00000000   -0.00000000   -0.00000000
     The Hubbard contrib.    to forces
     atom    1 type  1   force =     0.00000000    0.00000000    0.00000000
     atom    2 type  1   force =     0.00000000    0.00000000    0.00000000
     atom    3 type  1   force =     0.00000000    0.00000000    0.00000000
     atom    4 type  1   force =     0.00000000    0.00000000    0.00000000
     The SCF correction term to forces
     atom    1 type  1   force =    -0.00000000   -0.00000000    0.00000000
     atom    2 type  1   force =    -0.00000000    0.00000000    0.00000000
     atom    3 type  1   force =     0.00000000    0.00000000   -0.00000000
     atom    4 type  1   force =    -0.00000000    0.00000000    0.00000000

     Total force =     0.000000     Total SCF correction =     0.000000


     Computing stress (Cartesian axis) and pressure

          total   stress  (Ry/bohr**3)                   (kbar)     P=      174.36
   0.00118529   0.00000000   0.00000000          174.36        0.00        0.00
   0.00000000   0.00118529   0.00000000            0.00      174.36        0.00
   0.00000000   0.00000000   0.00118529            0.00        0.00      174.36


     BFGS Geometry Optimization
     Energy error            =      0.0E+00 Ry
     Gradient error          =      0.0E+00 Ry/Bohr
     Cell gradient error     =      1.7E+02 kbar

     number of scf cycles    =   1
     number of bfgs steps    =   0

     enthalpy           new  =   -2989.1558446337 Ry

     new trust radius        =       0.1185740851 bohr
     new conv_thr            =       0.0000010000 Ry

     new unit-cell volume =    436.95512 a.u.^3 (    64.75007 Ang^3 )
     density =     20.01200 g/cm^3

CELL_PARAMETERS (angstrom)
   4.015565761   0.000000000   0.000000000
   0.000000000   4.015565761   0.000000000
   0.000000000   0.000000000   4.015565761

ATOMIC_POSITIONS (crystal)
Pt            0.0000000000        0.0000000000        0.0000000000
Pt            0.0000000000        0.5000000000        0.5000000000
Pt            0.5000000000        0.0000000000        0.5000000000
Pt            0.5000000000        0.5000000000        0.0000000000



     Writing config-only to output data dir ./Pt.save/
     NEW-OLD atomic charge density approx. for the potential
     extrapolated charge   43.35504, renormalised to   40.00000
     Generating pointlists ...

     total cpu time spent up to now is       15.0 secs

     Self-consistent Calculation

     iteration #  1     ecut=    25.00 Ry     beta= 0.70
     Davidson diagonalization with overlap
     c_bands:  1 eigenvalues not converged
     c_bands:  1 eigenvalues not converged
     ethr =  1.00E-06,  avg # of iterations = 11.6

     total cpu time spent up to now is       17.2 secs

     total energy              =   -2988.79380785 Ry
     estimated scf accuracy    <       0.26851504 Ry

     total magnetization       =    -0.00 Bohr mag/cell
     absolute magnetization    =     0.00 Bohr mag/cell

     iteration #  2     ecut=    25.00 Ry     beta= 0.70
     Davidson diagonalization with overlap
     ethr =  6.71E-04,  avg # of iterations =  5.1

     total cpu time spent up to now is       18.5 secs

     total energy              =   -2989.17589079 Ry
     estimated scf accuracy    <       0.49134067 Ry

     total magnetization       =    -0.00 Bohr mag/cell
     absolute magnetization    =     0.00 Bohr mag/cell

     iteration #  3     ecut=    25.00 Ry     beta= 0.70
     Davidson diagonalization with overlap
     ethr =  6.71E-04,  avg # of iterations =  1.5

     total cpu time spent up to now is       19.2 secs

     total energy              =   -2989.18798094 Ry
     estimated scf accuracy    <       0.12824888 Ry

     total magnetization       =    -0.00 Bohr mag/cell
     absolute magnetization    =     0.00 Bohr mag/cell

     iteration #  4     ecut=    25.00 Ry     beta= 0.70
     Davidson diagonalization with overlap
     ethr =  3.21E-04,  avg # of iterations =  1.0

     total cpu time spent up to now is       19.9 secs

     total energy              =   -2989.17361001 Ry
     estimated scf accuracy    <       0.08996559 Ry

     total magnetization       =    -0.00 Bohr mag/cell
     absolute magnetization    =     0.00 Bohr mag/cell

     iteration #  5     ecut=    25.00 Ry     beta= 0.70
     Davidson diagonalization with overlap
     ethr =  2.25E-04,  avg # of iterations =  1.1

     total cpu time spent up to now is       20.6 secs

     total energy              =   -2989.15613617 Ry
     estimated scf accuracy    <       0.04736863 Ry

     total magnetization       =    -0.00 Bohr mag/cell
     absolute magnetization    =     0.00 Bohr mag/cell

     iteration #  6     ecut=    25.00 Ry     beta= 0.70
     Davidson diagonalization with overlap
     ethr =  1.18E-04,  avg # of iterations =  3.2

     total cpu time spent up to now is       21.5 secs

     total energy              =   -2989.16311927 Ry
     estimated scf accuracy    <       0.00504385 Ry

     total magnetization       =    -0.00 Bohr mag/cell
     absolute magnetization    =     0.00 Bohr mag/cell

     iteration #  7     ecut=    25.00 Ry     beta= 0.70
     Davidson diagonalization with overlap
     ethr =  1.26E-05,  avg # of iterations =  5.2

     total cpu time spent up to now is       22.7 secs

     total energy              =   -2989.16692569 Ry
     estimated scf accuracy    <       0.00009193 Ry

     total magnetization       =     0.00 Bohr mag/cell
     absolute magnetization    =     0.00 Bohr mag/cell

     iteration #  8     ecut=    25.00 Ry     beta= 0.70
     Davidson diagonalization with overlap
     ethr =  2.30E-07,  avg # of iterations =  6.2

     total cpu time spent up to now is       24.0 secs

     total energy              =   -2989.16730225 Ry
     estimated scf accuracy    <       0.00002846 Ry

     total magnetization       =    -0.00 Bohr mag/cell
     absolute magnetization    =     0.00 Bohr mag/cell

     iteration #  9     ecut=    25.00 Ry     beta= 0.70
     Davidson diagonalization with overlap
     c_bands:  1 eigenvalues not converged
     ethr =  7.12E-08,  avg # of iterations =  7.1

     total cpu time spent up to now is       25.5 secs

     total energy              =   -2989.16696136 Ry
     estimated scf accuracy    <       0.00065975 Ry

     total magnetization       =     0.00 Bohr mag/cell
     absolute magnetization    =     0.00 Bohr mag/cell

     iteration # 10     ecut=    25.00 Ry     beta= 0.70
     Davidson diagonalization with overlap
     ethr =  7.12E-08,  avg # of iterations = 10.5

     total cpu time spent up to now is       27.7 secs

     total energy              =   -2989.16696010 Ry
     estimated scf accuracy    <       0.00275795 Ry

     total magnetization       =    -0.00 Bohr mag/cell
     absolute magnetization    =     0.00 Bohr mag/cell

     iteration # 11     ecut=    25.00 Ry     beta= 0.70
     Davidson diagonalization with overlap
     ethr =  7.12E-08,  avg # of iterations =  7.7

     total cpu time spent up to now is       29.3 secs

     total energy              =   -2989.16712365 Ry
     estimated scf accuracy    <       0.00023204 Ry

     total magnetization       =    -0.00 Bohr mag/cell
     absolute magnetization    =     0.00 Bohr mag/cell

     iteration # 12     ecut=    25.00 Ry     beta= 0.70
     Davidson diagonalization with overlap
     ethr =  7.12E-08,  avg # of iterations =  5.3

     Magnetic moment per site  (integrated on atomic sphere of radius R)
     atom   1 (R=0.292)  charge=  7.9638  magn= -0.0000
     atom   2 (R=0.292)  charge=  7.9637  magn= -0.0000
     atom   3 (R=0.292)  charge=  7.9637  magn= -0.0000
     atom   4 (R=0.292)  charge=  7.9637  magn= -0.0000

     total cpu time spent up to now is       30.5 secs

     End of self-consistent calculation

 ------ SPIN UP ------------


          k = 0.0000 0.0000 0.0000 (   847 PWs)   bands (ev):

     6.5441   9.6898   9.6898   9.6898  10.1108  10.1108  10.1108  12.6420
    12.6420  12.6420  14.5592  14.5592  16.0091  16.0091  16.0092  16.4421
    16.4421  16.4421  16.4422  16.4422  16.4422  17.9429  17.9429  17.9429

          k = 0.0000 0.0000 0.1079 (   843 PWs)   bands (ev):

     6.6986   9.7422   9.8021   9.8021  10.1736  10.2049  10.2049  12.5461
    12.7196  12.7196  14.4521  14.5973  15.6264  15.6264  15.8529  15.8529
    15.9604  16.2579  16.2579  16.4468  16.4468  17.1196  18.8553  18.8553

          k = 0.0000 0.0000 0.2158 (   844 PWs)   bands (ev):

     7.1515   9.8584  10.1165  10.1165  10.3570  10.4830  10.4830  12.2796
    12.9504  12.9504  14.1600  14.4457  14.4457  14.7123  15.4106  15.4107
    15.5584  15.7669  15.7669  15.8221  16.4473  16.4473  20.3029  20.3029

          k = 0.0000 0.0000 0.3237 (   836 PWs)   bands (ev):

     7.8634   9.8778  10.5545  10.5545  10.6488  10.9417  10.9417  11.8956
    13.3272  13.3272  13.3461  13.3461  13.7639  14.1664  14.8148  14.8148
    14.8933  15.1198  15.1198  15.6157  16.4511  16.4512  21.8275  21.8275

          k = 0.0000 0.0000 0.4317 (   844 PWs)   bands (ev):

     8.7331   9.5165  10.9216  10.9216  11.0271  11.4584  11.5774  11.5774
    12.3828  12.3828  13.4213  13.4322  13.8357  13.8357  14.3381  14.3382
    14.4488  14.4488  15.1198  15.3709  16.4503  16.4504  22.7495  22.7495

          k = 0.0000 0.1079 0.1079 (   841 PWs)   bands (ev):

     6.8501   9.8565   9.8565   9.8932  10.2651  10.2651  10.3102  12.5028
    12.7499  12.7843  14.4244  14.5759  15.2140  15.2900  15.2900  15.7149
    15.8636  15.8637  16.2568  16.2568  16.3239  18.1010  18.1010  19.4805

          k = 0.0000 0.1079 0.2158 (   841 PWs)   bands (ev):

     7.2942   9.9774  10.1561  10.1773  10.4421  10.5366  10.6121  12.2745
    12.9563  12.9688  14.1374  14.1853  14.2828  14.5274  14.6937  15.3192
    15.4550  15.6867  15.7653  16.2575  16.2636  16.8695  19.4078  20.7499

          k = 0.0000 0.1079 0.3237 (   845 PWs)   bands (ev):

     7.9924  10.0006  10.5600  10.6282  10.7234  10.9834  11.0565  11.9148
    13.0906  13.1965  13.2854  13.3271  13.6283  13.9051  14.7753  14.8909
    14.9177  15.1174  15.2266  16.0212  16.2498  16.2542  20.5786  22.3556

          k = 0.0000 0.1079 0.4317 (   838 PWs)   bands (ev):

     8.8488   9.6321  10.9782  11.0131  11.0867  11.4992  11.5567  11.6000
    12.2087  12.3747  13.1215  13.1551  13.8334  14.0498  14.3536  14.4062
    14.4460  14.5878  15.2105  15.5587  16.2508  16.2510  21.4100  21.9095

          k = 0.0000 0.2158 0.2158 (   838 PWs)   bands (ev):

     7.7116  10.3149  10.3158  10.3158  10.6935  10.6935  10.9386  12.1823
    13.0233  13.0633  13.4817  13.4818  13.7931  14.1126  14.8000  15.0437
    15.3659  15.3660  15.7614  15.7614  15.9830  18.0292  18.0293  22.0274

          k = 0.0000 0.2158 0.3237 (   850 PWs)   bands (ev):

     8.3677  10.3509  10.6227  10.8075  10.9408  11.1039  11.3372  11.9382
    12.5610  12.8481  13.0438  13.0865  13.3691  13.9547  14.6281  14.8972
    15.0098  15.1126  15.1375  15.7537  15.8320  16.9322  19.0586  21.1960

          k = 0.0000 0.2158 0.4317 (   845 PWs)   bands (ev):

     9.1794   9.9553  11.0722  11.2563  11.2702  11.5879  11.6056  11.6614
    11.8144  12.3398  12.6443  12.8526  13.8463  14.0796  14.3238  14.4456
    14.4493  14.5015  15.6033  15.7548  15.7715  16.1734  19.8933  20.5448

          k = 0.0000 0.3237 0.3237 (   848 PWs)   bands (ev):

     8.9516  10.7876  10.8614  10.8614  11.2890  11.2891  11.6618  11.8876
    12.1600  12.1600  12.7279  12.9264  13.5519  13.8158  14.3533  14.6361
    14.6361  15.1152  15.1152  15.4609  15.6228  17.8549  17.8549  20.1751

          k = 0.0000 0.3237 0.4317 (   844 PWs)   bands (ev):

     9.6720  10.4015  11.0639  11.2919  11.5119  11.7113  11.7307  11.7416
    11.8085  12.2487  12.2938  12.6703  13.8562  13.9308  14.1329  14.2008
    14.2604  14.4752  15.1462  15.2445  16.2415  16.9578  18.6691  19.3932

          k = 0.0000 0.4317 0.4317 (   856 PWs)   bands (ev):

    10.2386  10.7919  10.7919  10.9845  11.8054  11.8054  11.8090  12.0568
    12.0693  12.1493  12.1493  12.5018  13.7044  13.8789  13.9029  13.9030
    14.1643  14.5818  14.5819  14.8271  16.9635  17.7380  17.7381  18.5063

          k = 0.1079 0.1079 0.1079 (   835 PWs)   bands (ev):

     6.9978   9.9465   9.9465   9.9465  10.3706  10.3706  10.3706  12.4696
    12.8057  12.8057  14.4838  14.4838  14.9270  14.9271  14.9271  15.5524
    15.5524  15.5525  16.2912  16.2912  16.2912  18.6790  18.6790  18.6790

          k = 0.1079 0.1079 0.2158 (   837 PWs)   bands (ev):

     7.4305  10.0641  10.2065  10.2065  10.5475  10.6720  10.6720  12.2783
    12.9604  12.9737  14.0123  14.0123  14.1928  14.2485  14.6555  15.1494
    15.2227  15.2227  16.1524  16.2167  16.2167  17.3050  19.7834  19.7834

          k = 0.1079 0.1079 0.3237 (   841 PWs)   bands (ev):

     8.1100  10.0836  10.6093  10.6093  10.8241  11.1077  11.1077  11.9493
    13.0698  13.0698  13.1435  13.2532  13.3716  14.0685  14.6362  14.7707
    14.7707  14.9178  15.9036  16.0684  16.1470  16.1471  20.8637  20.8637

          k = 0.1079 0.1079 0.4317 (   844 PWs)   bands (ev):

     8.9442   9.7137  11.0541  11.0542  11.1720  11.5093  11.5094  11.5608
    12.3123  12.3124  12.9572  13.0404  13.6385  14.1114  14.3628  14.3629
    14.3672  15.0832  15.2402  15.5840  16.1148  16.1149  21.5454  21.5454

          k = 0.1079 0.2158 0.2158 (   845 PWs)   bands (ev):

     7.8283  10.3113  10.3113  10.3439  10.8507  10.8507  11.0039  12.2194
    13.0104  13.0292  13.4000  13.4001  13.5931  14.2550  14.7380  14.8217
    14.8774  14.8775  16.0828  16.0828  16.0866  18.2715  18.2715  20.6346

          k = 0.1079 0.2158 0.3237 (   850 PWs)   bands (ev):

     8.4499  10.3084  10.6232  10.6909  11.1240  11.2795  11.3859  12.0213
    12.6186  12.8018  12.9814  13.0237  13.2178  14.2079  14.3878  14.4615
    14.5900  15.0876  15.7684  15.9154  15.9165  16.9746  19.2590  21.3430

          k = 0.1079 0.2158 0.4317 (   842 PWs)   bands (ev):

     9.2117   9.9312  11.0308  11.1412  11.4290  11.4651  11.5144  11.7357
    12.2372  12.4788  12.6160  12.8275  13.5076  13.9054  14.1950  14.2689
    14.5374  15.1785  15.5476  15.8105  15.8115  16.1091  20.0937  20.7856

          k = 0.1079 0.3237 0.3237 (   852 PWs)   bands (ev):

     8.9710  10.6118  10.6118  10.7170  11.5779  11.5779  11.6683  12.0474
    12.2619  12.2620  12.8031  12.9232  13.2500  14.1187  14.1870  14.1870
    14.2091  15.5550  15.5550  15.5597  15.6560  17.8972  17.8973  20.3970

          k = 0.1079 0.3237 0.4317 (   838 PWs)   bands (ev):

     9.5986  10.2094  10.8585  10.8641  11.7546  11.7722  11.8400  11.9769
    12.2439  12.3233  12.5927  12.6796  13.4088  13.7438  13.8997  13.9678
    14.4695  15.0102  15.4182  15.4532  16.1739  16.9052  18.7357  19.5153

          k = 0.1079 0.4317 0.4317 (   845 PWs)   bands (ev):

    10.0342  10.4655  10.4655  10.6711  11.9913  12.1281  12.1281  12.1607
    12.3278  12.3278  12.5563  12.5928  13.3737  13.5929  13.5929  13.6213
    14.5580  14.9385  14.9386  15.1068  16.8970  17.7053  17.7054  18.5271

          k = 0.2158 0.2158 0.2158 (   844 PWs)   bands (ev):

     8.1659  10.3795  10.3795  10.3795  11.2073  11.2073  11.2073  12.2784
    12.9965  12.9965  13.1216  13.1216  13.1216  14.3802  14.3802  14.3803
    14.6017  14.6017  16.1829  16.1829  16.1830  18.9336  18.9337  18.9337

          k = 0.2158 0.2158 0.3237 (   845 PWs)   bands (ev):

     8.6849  10.2791  10.5532  10.5533  11.5342  11.5670  11.5670  12.2450
    12.6691  12.7714  12.7715  12.9635  13.0501  13.9177  14.0832  14.0832
    14.6106  15.0392  16.0358  16.0359  16.1122  17.3358  19.7605  19.7606

          k = 0.2158 0.2158 0.4317 (   844 PWs)   bands (ev):

     9.3086   9.9021  10.7577  10.7578  11.6288  11.6288  11.8790  12.1055
    12.5387  12.7216  12.7216  12.7577  13.2231  13.5184  13.8770  13.8770
    15.0744  15.4841  15.8643  15.8680  15.8680  16.0199  20.5537  20.5539

          k = 0.2158 0.3237 0.3237 (   847 PWs)   bands (ev):

     9.0405  10.3115  10.3115  10.4689  11.7974  11.9050  11.9050  12.4946
    12.6257  12.6257  12.9022  12.9676  12.9762  13.6604  13.6604  13.6886
    14.7534  15.3990  15.9500  15.9915  15.9915  18.0676  18.0677  20.2317

          k = 0.2158 0.3237 0.4317 (   847 PWs)   bands (ev):

     9.4716   9.9209  10.3719  10.4216  11.8918  11.9364  12.3291  12.5917
    12.5931  12.7114  12.9443  13.0549  13.1334  13.2987  13.4815  13.5119
    15.0829  15.6545  15.7835  15.7918  15.9752  16.7721  18.8530  19.6535

          k = 0.2158 0.4317 0.4317 (   851 PWs)   bands (ev):

     9.7040  10.0077  10.0077  10.1717  12.1337  12.2802  12.2802  12.5375
    12.9893  13.0589  13.0589  13.0960  13.2104  13.2505  13.2505  13.3584
    15.1141  15.4703  15.4704  15.5578  16.6867  17.5766  17.5767  18.4777

          k = 0.3237 0.3237 0.3237 (   856 PWs)   bands (ev):

     9.1825  10.1010  10.1010  10.1010  12.0790  12.0790  12.0790  12.8234
    12.8234  13.1045  13.1884  13.1884  13.1884  13.2871  13.2871  13.2871
    15.2898  15.2898  16.0985  16.0985  16.0986  18.3849  18.3849  18.3849

          k = 0.3237 0.3237 0.4317 (   851 PWs)   bands (ev):

     9.4116   9.7272   9.9955   9.9955  12.1502  12.1503  12.4049  12.6676
    12.8311  12.9903  13.1030  13.1031  13.4028  13.4747  13.6605  13.6606
    15.6578  15.7403  15.9740  15.9740  16.0268  16.7856  18.6946  18.6946

          k = 0.3237 0.4317 0.4317 (   859 PWs)   bands (ev):

     9.4719   9.6687   9.6687   9.7586  12.3378  12.4208  12.4209  12.6198
    12.7288  12.8397  12.8397  12.8739  14.0971  14.0971  14.1579  14.1700
    15.6077  15.8953  15.8953  15.9099  16.3220  17.2833  17.2833  18.0015

          k = 0.4317 0.4317 0.4317 (   861 PWs)   bands (ev):

     9.3970   9.4934   9.4934   9.4934  12.5199  12.5199  12.5199  12.6197
    12.6197  12.6698  12.6698  12.6698  14.9370  14.9370  14.9370  15.2458
    15.9434  15.9434  16.0503  16.0503  16.0503  16.8941  16.8942  16.8942

 ------ SPIN DOWN ----------


          k = 0.0000 0.0000 0.0000 (   847 PWs)   bands (ev):

     6.5441   9.6898   9.6898   9.6898  10.1107  10.1107  10.1107  12.6419
    12.6419  12.6419  14.5592  14.5592  16.0091  16.0091  16.0091  16.4421
    16.4421  16.4421  16.4421  16.4421  16.4421  17.9428  17.9428  17.9428

          k = 0.0000 0.0000 0.1079 (   843 PWs)   bands (ev):

     6.6985   9.7421   9.8021   9.8021  10.1735  10.2049  10.2049  12.5461
    12.7196  12.7196  14.4521  14.5973  15.6264  15.6264  15.8528  15.8529
    15.9604  16.2578  16.2578  16.4467  16.4468  17.1196  18.8552  18.8552

          k = 0.0000 0.0000 0.2158 (   844 PWs)   bands (ev):

     7.1515   9.8584  10.1164  10.1164  10.3569  10.4829  10.4829  12.2796
    12.9503  12.9503  14.1599  14.4456  14.4456  14.7122  15.4106  15.4106
    15.5583  15.7668  15.7668  15.8220  16.4472  16.4473  20.3029  20.3029

          k = 0.0000 0.0000 0.3237 (   836 PWs)   bands (ev):

     7.8634   9.8778  10.5544  10.5544  10.6488  10.9417  10.9417  11.8956
    13.3272  13.3272  13.3460  13.3460  13.7638  14.1664  14.8147  14.8148
    14.8932  15.1198  15.1198  15.6156  16.4510  16.4511  21.8275  21.8275

          k = 0.0000 0.0000 0.4317 (   844 PWs)   bands (ev):

     8.7330   9.5165  10.9216  10.9216  11.0270  11.4584  11.5773  11.5773
    12.3827  12.3827  13.4213  13.4321  13.8356  13.8356  14.3381  14.3381
    14.4487  14.4487  15.1198  15.3708  16.4503  16.4503  22.7494  22.7495

          k = 0.0000 0.1079 0.1079 (   841 PWs)   bands (ev):

     6.8501   9.8565   9.8565   9.8932  10.2650  10.2650  10.3101  12.5028
    12.7499  12.7843  14.4243  14.5758  15.2139  15.2899  15.2900  15.7149
    15.8636  15.8636  16.2568  16.2568  16.3238  18.1009  18.1010  19.4804

          k = 0.0000 0.1079 0.2158 (   841 PWs)   bands (ev):

     7.2942   9.9774  10.1561  10.1772  10.4421  10.5366  10.6120  12.2744
    12.9562  12.9687  14.1374  14.1852  14.2828  14.5273  14.6937  15.3191
    15.4550  15.6866  15.7652  16.2574  16.2636  16.8695  19.4078  20.7499

          k = 0.0000 0.1079 0.3237 (   845 PWs)   bands (ev):

     7.9924  10.0005  10.5600  10.6282  10.7234  10.9833  11.0564  11.9148
    13.0906  13.1964  13.2854  13.3271  13.6283  13.9051  14.7752  14.8909
    14.9177  15.1174  15.2266  16.0211  16.2497  16.2542  20.5786  22.3527

          k = 0.0000 0.1079 0.4317 (   838 PWs)   bands (ev):

     8.8488   9.6320  10.9781  11.0131  11.0867  11.4992  11.5567  11.5999
    12.2087  12.3746  13.1215  13.1551  13.8334  14.0497  14.3535  14.4061
    14.4460  14.5877  15.2105  15.5587  16.2508  16.2510  21.4100  21.9094

          k = 0.0000 0.2158 0.2158 (   838 PWs)   bands (ev):

     7.7116  10.3148  10.3158  10.3158  10.6934  10.6934  10.9385  12.1823
    13.0233  13.0633  13.4817  13.4817  13.7931  14.1126  14.8000  15.0436
    15.3659  15.3659  15.7613  15.7613  15.9830  18.0292  18.0292  21.8182

          k = 0.0000 0.2158 0.3237 (   850 PWs)   bands (ev):

     8.3676  10.3508  10.6227  10.8074  10.9407  11.1039  11.3372  11.9382
    12.5610  12.8480  13.0437  13.0865  13.3691  13.9546  14.6281  14.8971
    15.0097  15.1126  15.1375  15.7537  15.8320  16.9321  19.0586  21.1959

          k = 0.0000 0.2158 0.4317 (   845 PWs)   bands (ev):

     9.1794   9.9553  11.0721  11.2562  11.2702  11.5879  11.6055  11.6614
    11.8143  12.3397  12.6442  12.8526  13.8462  14.0796  14.3237  14.4455
    14.4492  14.5015  15.6033  15.7548  15.7714  16.1733  19.8932  20.5447

          k = 0.0000 0.3237 0.3237 (   848 PWs)   bands (ev):

     8.9515  10.7876  10.8614  10.8614  11.2890  11.2890  11.6618  11.8876
    12.1599  12.1600  12.7279  12.9264  13.5519  13.8158  14.3532  14.6361
    14.6361  15.1151  15.1152  15.4609  15.6228  17.8548  17.8549  20.1751

          k = 0.0000 0.3237 0.4317 (   844 PWs)   bands (ev):

     9.6719  10.4015  11.0639  11.2919  11.5118  11.7113  11.7306  11.7415
    11.8084  12.2486  12.2937  12.6702  13.8562  13.9307  14.1328  14.2007
    14.2604  14.4752  15.1462  15.2444  16.2414  16.9577  18.6691  19.3932

          k = 0.0000 0.4317 0.4317 (   856 PWs)   bands (ev):

    10.2386  10.7919  10.7919  10.9845  11.8054  11.8054  11.8090  12.0568
    12.0692  12.1492  12.1493  12.5017  13.7044  13.8788  13.9029  13.9029
    14.1643  14.5818  14.5818  14.8271  16.9635  17.7380  17.7380  18.5062

          k = 0.1079 0.1079 0.1079 (   835 PWs)   bands (ev):

     6.9978   9.9465   9.9465   9.9465  10.3705  10.3705  10.3705  12.4696
    12.8057  12.8057  14.4838  14.4838  14.9270  14.9270  14.9270  15.5523
    15.5523  15.5524  16.2911  16.2911  16.2912  18.6790  18.6790  18.6790

          k = 0.1079 0.1079 0.2158 (   837 PWs)   bands (ev):

     7.4304  10.0640  10.2065  10.2065  10.5474  10.6719  10.6719  12.2782
    12.9604  12.9736  14.0122  14.0122  14.1927  14.2485  14.6554  15.1493
    15.2226  15.2227  16.1524  16.2167  16.2167  17.3050  19.7834  19.7834

          k = 0.1079 0.1079 0.3237 (   841 PWs)   bands (ev):

     8.1100  10.0835  10.6092  10.6092  10.8240  11.1076  11.1077  11.9492
    13.0697  13.0698  13.1434  13.2531  13.3716  14.0685  14.6361  14.7706
    14.7707  14.9177  15.9036  16.0683  16.1470  16.1470  20.8637  20.8637

          k = 0.1079 0.1079 0.4317 (   844 PWs)   bands (ev):

     8.9442   9.7137  11.0541  11.0541  11.1719  11.5093  11.5093  11.5608
    12.3123  12.3123  12.9571  13.0404  13.6384  14.1114  14.3628  14.3628
    14.3672  15.0831  15.2402  15.5840  16.1148  16.1148  21.5453  21.5453

          k = 0.1079 0.2158 0.2158 (   845 PWs)   bands (ev):

     7.8283  10.3113  10.3113  10.3438  10.8507  10.8507  11.0039  12.2193
    13.0103  13.0291  13.4000  13.4000  13.5930  14.2550  14.7379  14.8217
    14.8774  14.8774  16.0828  16.0828  16.0865  18.2715  18.2715  20.6346

          k = 0.1079 0.2158 0.3237 (   850 PWs)   bands (ev):

     8.4499  10.3084  10.6231  10.6909  11.1239  11.2795  11.3858  12.0212
    12.6185  12.8018  12.9814  13.0236  13.2178  14.2078  14.3878  14.4615
    14.5899  15.0876  15.7683  15.9153  15.9164  16.9746  19.2590  21.3430

          k = 0.1079 0.2158 0.4317 (   842 PWs)   bands (ev):

     9.2117   9.9311  11.0308  11.1412  11.4289  11.4651  11.5144  11.7357
    12.2372  12.4788  12.6160  12.8275  13.5076  13.9053  14.1949  14.2688
    14.5374  15.1784  15.5475  15.8105  15.8114  16.1091  20.0937  20.7856

          k = 0.1079 0.3237 0.3237 (   852 PWs)   bands (ev):

     8.9710  10.6117  10.6117  10.7170  11.5779  11.5779  11.6683  12.0474
    12.2619  12.2619  12.8031  12.9231  13.2500  14.1187  14.1870  14.1870
    14.2091  15.5549  15.5549  15.5596  15.6559  17.8972  17.8972  20.3969

          k = 0.1079 0.3237 0.4317 (   838 PWs)   bands (ev):

     9.5985  10.2094  10.8585  10.8641  11.7546  11.7722  11.8400  11.9768
    12.2439  12.3233  12.5926  12.6796  13.4088  13.7437  13.8997  13.9677
    14.4694  15.0102  15.4181  15.4532  16.1739  16.9052  18.7357  19.5153

          k = 0.1079 0.4317 0.4317 (   845 PWs)   bands (ev):

    10.0342  10.4654  10.4654  10.6711  11.9913  12.1280  12.1281  12.1606
    12.3278  12.3278  12.5562  12.5928  13.3737  13.5929  13.5929  13.6213
    14.5580  14.9385  14.9385  15.1068  16.8969  17.7053  17.7053  18.5271

          k = 0.2158 0.2158 0.2158 (   844 PWs)   bands (ev):

     8.1659  10.3795  10.3795  10.3795  11.2073  11.2073  11.2073  12.2784
    12.9964  12.9964  13.1215  13.1216  13.1216  14.3802  14.3802  14.3803
    14.6016  14.6016  16.1829  16.1829  16.1829  18.9336  18.9336  18.9336

          k = 0.2158 0.2158 0.3237 (   845 PWs)   bands (ev):

     8.6849  10.2790  10.5532  10.5532  11.5342  11.5669  11.5669  12.2450
    12.6691  12.7714  12.7714  12.9635  13.0501  13.9177  14.0831  14.0832
    14.6106  15.0392  16.0358  16.0358  16.1122  17.3358  19.7605  19.7605

          k = 0.2158 0.2158 0.4317 (   844 PWs)   bands (ev):

     9.3086   9.9021  10.7577  10.7577  11.6287  11.6288  11.8789  12.1054
    12.5386  12.7215  12.7216  12.7577  13.2231  13.5184  13.8769  13.8770
    15.0744  15.4841  15.8643  15.8679  15.8680  16.0198  20.5536  20.5537

          k = 0.2158 0.3237 0.3237 (   847 PWs)   bands (ev):

     9.0405  10.3115  10.3115  10.4689  11.7974  11.9049  11.9049  12.4946
    12.6257  12.6257  12.9021  12.9675  12.9762  13.6604  13.6604  13.6885
    14.7533  15.3990  15.9500  15.9914  15.9915  18.0676  18.0676  20.2317

          k = 0.2158 0.3237 0.4317 (   847 PWs)   bands (ev):

     9.4715   9.9209  10.3718  10.4215  11.8918  11.9363  12.3290  12.5916
    12.5930  12.7113  12.9443  13.0549  13.1334  13.2986  13.4814  13.5119
    15.0829  15.6545  15.7834  15.7918  15.9752  16.7720  18.8529  19.6535

          k = 0.2158 0.4317 0.4317 (   851 PWs)   bands (ev):

     9.7040  10.0076  10.0077  10.1717  12.1337  12.2801  12.2802  12.5374
    12.9893  13.0588  13.0589  13.0959  13.2103  13.2504  13.2505  13.3583
    15.1140  15.4703  15.4703  15.5578  16.6866  17.5766  17.5767  18.4777

          k = 0.3237 0.3237 0.3237 (   856 PWs)   bands (ev):

     9.1825  10.1010  10.1010  10.1010  12.0790  12.0790  12.0790  12.8234
    12.8234  13.1045  13.1883  13.1884  13.1884  13.2870  13.2870  13.2871
    15.2898  15.2898  16.0985  16.0985  16.0985  18.3848  18.3849  18.3849

          k = 0.3237 0.3237 0.4317 (   851 PWs)   bands (ev):

     9.4116   9.7271   9.9954   9.9954  12.1502  12.1502  12.4049  12.6676
    12.8311  12.9903  13.1030  13.1030  13.4027  13.4747  13.6605  13.6605
    15.6578  15.7403  15.9739  15.9740  16.0267  16.7856  18.6946  18.6946

          k = 0.3237 0.4317 0.4317 (   859 PWs)   bands (ev):

     9.4718   9.6687   9.6687   9.7585  12.3377  12.4208  12.4208  12.6198
    12.7288  12.8396  12.8397  12.8739  14.0971  14.0971  14.1579  14.1699
    15.6076  15.8953  15.8953  15.9098  16.3220  17.2833  17.2833  18.0015

          k = 0.4317 0.4317 0.4317 (   861 PWs)   bands (ev):

     9.3970   9.4934   9.4934   9.4934  12.5198  12.5198  12.5198  12.6196
    12.6196  12.6697  12.6697  12.6698  14.9369  14.9370  14.9370  15.2458
    15.9434  15.9434  16.0502  16.0502  16.0503  16.8941  16.8941  16.8941

     the Fermi energy is    16.0206 ev

!    total energy              =   -2989.16718514 Ry
     total all-electron energy =   -147309.918815 Ry
     estimated scf accuracy    <       0.00000003 Ry
     smearing contrib. (-TS)   =      -0.00002507 Ry
     internal energy E=F+TS    =   -2989.16716006 Ry

     The total energy is F=E-TS. E is the sum of the following terms:
     one-electron contribution =      68.41502566 Ry
     hartree contribution      =      18.42412409 Ry
     xc contribution           =     -95.44582291 Ry
     ewald contribution        =    -241.67996936 Ry
     one-center paw contrib.   =   -2738.88051755 Ry

     total magnetization       =    -0.00 Bohr mag/cell
     absolute magnetization    =     0.00 Bohr mag/cell

     convergence has been achieved in  12 iterations

     Forces acting on atoms (cartesian axes, Ry/au):

     atom    1 type  1   force =     0.00000000    0.00000000    0.00000000
     atom    2 type  1   force =     0.00000000    0.00000000    0.00000000
     atom    3 type  1   force =     0.00000000    0.00000000    0.00000000
     atom    4 type  1   force =     0.00000000    0.00000000    0.00000000
     The non-local contrib.  to forces
     atom    1 type  1   force =     0.00000000    0.00000000    0.00000000
     atom    2 type  1   force =     0.00000000    0.00000000    0.00000000
     atom    3 type  1   force =     0.00000000    0.00000000    0.00000000
     atom    4 type  1   force =     0.00000000    0.00000000    0.00000000
     The ionic contribution  to forces
     atom    1 type  1   force =    -0.00000000   -0.00000000   -0.00000000
     atom    2 type  1   force =    -0.00000000    0.00000000    0.00000000
     atom    3 type  1   force =     0.00000000   -0.00000000    0.00000000
     atom    4 type  1   force =     0.00000000    0.00000000   -0.00000000
     The local contribution  to forces
     atom    1 type  1   force =    -0.00000000   -0.00000000    0.00000000
     atom    2 type  1   force =     0.00000000    0.00000000    0.00000000
     atom    3 type  1   force =     0.00000000    0.00000000    0.00000000
     atom    4 type  1   force =     0.00000000    0.00000000    0.00000000
     The core correction contribution to forces
     atom    1 type  1   force =     0.00000000    0.00000000    0.00000000
     atom    2 type  1   force =     0.00000000    0.00000000    0.00000000
     atom    3 type  1   force =     0.00000000    0.00000000    0.00000000
     atom    4 type  1   force =     0.00000000    0.00000000    0.00000000
     The Hubbard contrib.    to forces
     atom    1 type  1   force =     0.00000000    0.00000000    0.00000000
     atom    2 type  1   force =     0.00000000    0.00000000    0.00000000
     atom    3 type  1   force =     0.00000000    0.00000000    0.00000000
     atom    4 type  1   force =     0.00000000    0.00000000    0.00000000
     The SCF correction term to forces
     atom    1 type  1   force =     0.00000000    0.00000000   -0.00000000
     atom    2 type  1   force =     0.00000000    0.00000000    0.00000000
     atom    3 type  1   force =     0.00000000    0.00000000    0.00000000
     atom    4 type  1   force =     0.00000000    0.00000000   -0.00000000

     Total force =     0.000000     Total SCF correction =     0.000000


     Computing stress (Cartesian axis) and pressure

          total   stress  (Ry/bohr**3)                   (kbar)     P=      -61.18
  -0.00041588   0.00000000   0.00000000          -61.18        0.00        0.00
   0.00000000  -0.00041588   0.00000000            0.00      -61.18        0.00
   0.00000000   0.00000000  -0.00041588            0.00        0.00      -61.18

     Energy error            =      1.1E-02 Ry
     Gradient error          =      0.0E+00 Ry/Bohr
     Cell gradient error     =      6.1E+01 kbar

     number of scf cycles    =   2
     number of bfgs steps    =   1

     enthalpy           old  =   -2989.1558446337 Ry
     enthalpy           new  =   -2989.1671851366 Ry

     CASE: enthalpy          _new < enthalpy          _old

     new trust radius        =       0.0326208244 bohr
     new conv_thr            =       0.0000000100 Ry

     new unit-cell volume =    426.80639 a.u.^3 (    63.24618 Ang^3 )
     density =     20.48785 g/cm^3

CELL_PARAMETERS (angstrom)
   3.984233389   0.000000000   0.000000000
   0.000000000   3.984233389   0.000000000
   0.000000000   0.000000000   3.984233389

ATOMIC_POSITIONS (crystal)
Pt            0.0000000000        0.0000000000        0.0000000000
Pt            0.0000000000        0.5000000000        0.5000000000
Pt            0.5000000000        0.0000000000        0.5000000000
Pt            0.5000000000        0.5000000000        0.0000000000



     Writing config-only to output data dir ./Pt.save/
     NEW-OLD atomic charge density approx. for the potential
     extrapolated charge   39.04888, renormalised to   40.00000
     Generating pointlists ...

     total cpu time spent up to now is       32.1 secs

     Self-consistent Calculation

     iteration #  1     ecut=    25.00 Ry     beta= 0.70
     Davidson diagonalization with overlap
     c_bands:  1 eigenvalues not converged
     ethr =  1.00E-06,  avg # of iterations =  7.8

     total cpu time spent up to now is       33.8 secs

     total energy              =   -2989.13680379 Ry
     estimated scf accuracy    <       0.02661498 Ry

     total magnetization       =    -0.00 Bohr mag/cell
     absolute magnetization    =     0.00 Bohr mag/cell

     iteration #  2     ecut=    25.00 Ry     beta= 0.70
     Davidson diagonalization with overlap
     ethr =  6.65E-05,  avg # of iterations =  4.8

     total cpu time spent up to now is       35.0 secs

     total energy              =   -2989.17018259 Ry
     estimated scf accuracy    <       0.03894816 Ry

     total magnetization       =    -0.00 Bohr mag/cell
     absolute magnetization    =     0.00 Bohr mag/cell

     iteration #  3     ecut=    25.00 Ry     beta= 0.70
     Davidson diagonalization with overlap
     ethr =  6.65E-05,  avg # of iterations =  1.5

     total cpu time spent up to now is       35.7 secs

     total energy              =   -2989.16921755 Ry
     estimated scf accuracy    <       0.00970508 Ry

     total magnetization       =    -0.00 Bohr mag/cell
     absolute magnetization    =     0.00 Bohr mag/cell

     iteration #  4     ecut=    25.00 Ry     beta= 0.70
     Davidson diagonalization with overlap
     ethr =  2.43E-05,  avg # of iterations =  1.7

     total cpu time spent up to now is       36.5 secs

     total energy              =   -2989.16945548 Ry
     estimated scf accuracy    <       0.00337931 Ry

     total magnetization       =    -0.00 Bohr mag/cell
     absolute magnetization    =     0.00 Bohr mag/cell

     iteration #  5     ecut=    25.00 Ry     beta= 0.70
     Davidson diagonalization with overlap
     ethr =  8.45E-06,  avg # of iterations =  3.6

     total cpu time spent up to now is       37.3 secs

     total energy              =   -2989.16914629 Ry
     estimated scf accuracy    <       0.00153707 Ry

     total magnetization       =    -0.00 Bohr mag/cell
     absolute magnetization    =     0.00 Bohr mag/cell

     iteration #  6     ecut=    25.00 Ry     beta= 0.70
     Davidson diagonalization with overlap
     ethr =  3.84E-06,  avg # of iterations =  3.8

     total cpu time spent up to now is       38.4 secs

     total energy              =   -2989.16962454 Ry
     estimated scf accuracy    <       0.00004513 Ry

     total magnetization       =     0.00 Bohr mag/cell
     absolute magnetization    =     0.00 Bohr mag/cell

     iteration #  7     ecut=    25.00 Ry     beta= 0.70
     Davidson diagonalization with overlap
     ethr =  1.13E-07,  avg # of iterations =  6.7

     total cpu time spent up to now is       39.9 secs

     total energy              =   -2989.16973378 Ry
     estimated scf accuracy    <       0.00000826 Ry

     total magnetization       =     0.00 Bohr mag/cell
     absolute magnetization    =     0.00 Bohr mag/cell

     iteration #  8     ecut=    25.00 Ry     beta= 0.70
     Davidson diagonalization with overlap
     ethr =  2.06E-08,  avg # of iterations =  2.8

     total cpu time spent up to now is       40.8 secs

     total energy              =   -2989.16972928 Ry
     estimated scf accuracy    <       0.00000840 Ry

     total magnetization       =     0.00 Bohr mag/cell
     absolute magnetization    =     0.00 Bohr mag/cell

     iteration #  9     ecut=    25.00 Ry     beta= 0.70
     Davidson diagonalization with overlap
     ethr =  2.06E-08,  avg # of iterations =  2.3

     total cpu time spent up to now is       41.7 secs

     total energy              =   -2989.16973210 Ry
     estimated scf accuracy    <       0.00000108 Ry

     total magnetization       =    -0.00 Bohr mag/cell
     absolute magnetization    =     0.00 Bohr mag/cell

     iteration # 10     ecut=    25.00 Ry     beta= 0.70
     Davidson diagonalization with overlap
     ethr =  2.70E-09,  avg # of iterations =  2.3

     total cpu time spent up to now is       42.6 secs

     total energy              =   -2989.16973230 Ry
     estimated scf accuracy    <       0.00000029 Ry

     total magnetization       =    -0.00 Bohr mag/cell
     absolute magnetization    =     0.00 Bohr mag/cell

     iteration # 11     ecut=    25.00 Ry     beta= 0.70
     Davidson diagonalization with overlap
     ethr =  7.36E-10,  avg # of iterations =  3.6

     total cpu time spent up to now is       43.5 secs

     total energy              =   -2989.16973210 Ry
     estimated scf accuracy    <       0.00000042 Ry

     total magnetization       =    -0.00 Bohr mag/cell
     absolute magnetization    =     0.00 Bohr mag/cell

     iteration # 12     ecut=    25.00 Ry     beta= 0.70
     Davidson diagonalization with overlap
     ethr =  7.36E-10,  avg # of iterations =  2.2

     total cpu time spent up to now is       44.4 secs

     total energy              =   -2989.16973214 Ry
     estimated scf accuracy    <       0.00000003 Ry

     total magnetization       =    -0.00 Bohr mag/cell
     absolute magnetization    =     0.00 Bohr mag/cell

     iteration # 13     ecut=    25.00 Ry     beta= 0.70
     Davidson diagonalization with overlap
     ethr =  6.41E-11,  avg # of iterations =  4.7

     Magnetic moment per site  (integrated on atomic sphere of radius R)
     atom   1 (R=0.292)  charge=  7.9924  magn= -0.0000
     atom   2 (R=0.292)  charge=  7.9924  magn= -0.0000
     atom   3 (R=0.292)  charge=  7.9924  magn= -0.0000
     atom   4 (R=0.292)  charge=  7.9924  magn= -0.0000

     total cpu time spent up to now is       45.5 secs

     End of self-consistent calculation

 ------ SPIN UP ------------


          k = 0.0000 0.0000 0.0000 (   847 PWs)   bands (ev):

     6.8532  10.0107  10.0107  10.0107  10.4450  10.4450  10.4450  13.0711
    13.0711  13.0711  15.0634  15.0634  16.5739  16.5739  16.5739  17.0257
    17.0257  17.0257  17.0257  17.0257  17.0257  18.4596  18.4596  18.4596

          k = 0.0000 0.0000 0.1088 (   843 PWs)   bands (ev):

     7.0112  10.0662  10.1266  10.1266  10.5101  10.5433  10.5433  12.9712
    13.1516  13.1516  14.9518  15.1035  16.1580  16.1580  16.4094  16.4094
    16.5230  16.8316  16.8316  17.0298  17.0298  17.6369  19.4226  19.4226

          k = 0.0000 0.0000 0.2175 (   844 PWs)   bands (ev):

     7.4742  10.1915  10.4504  10.4504  10.6995  10.8319  10.8319  12.6935
    13.3908  13.3908  14.6463  14.9324  14.9324  15.2230  15.9460  15.9460
    16.0596  16.3178  16.3178  16.3787  17.0304  17.0304  20.9125  20.9125

          k = 0.0000 0.0000 0.3263 (   836 PWs)   bands (ev):

     8.2007  10.2233  10.9017  10.9017  11.0012  11.3074  11.3074  12.2941
    13.7814  13.7814  13.7951  13.7951  14.2323  14.6419  15.3231  15.3231
    15.4111  15.6434  15.6434  16.1634  17.0339  17.0339  22.4692  22.4692

          k = 0.0000 0.0000 0.4350 (   844 PWs)   bands (ev):

     9.0847   9.8723  11.2798  11.2798  11.3928  11.8401  11.9656  11.9656
    12.7990  12.7990  13.8753  13.8870  14.3088  14.3088  14.8262  14.8262
    14.9455  14.9455  15.6470  15.9084  17.0333  17.0333  23.4748  23.4748

          k = 0.0000 0.1088 0.1088 (   841 PWs)   bands (ev):

     7.1661  10.1841  10.1841  10.2204  10.6053  10.6053  10.6525  12.9258
    13.1829  13.2186  14.9227  15.0807  15.7279  15.8086  15.8086  16.2647
    16.4182  16.4182  16.8307  16.8307  16.9019  18.6746  18.6746  20.0703

          k = 0.0000 0.1088 0.2175 (   841 PWs)   bands (ev):

     7.6198  10.3140  10.4914  10.5144  10.7882  10.8873  10.9652  12.6879
    13.3967  13.4097  14.6140  14.6728  14.7636  15.0165  15.2032  15.8506
    15.9910  16.2318  16.3161  16.8310  16.8380  17.4390  20.0230  21.3739

          k = 0.0000 0.1088 0.3263 (   845 PWs)   bands (ev):

     8.3322  10.3495  10.9084  10.9786  11.0792  11.3503  11.4253  12.3139
    13.5319  13.6449  13.7325  13.7812  14.0897  14.3798  15.2823  15.4021
    15.4362  15.6408  15.7507  16.5796  16.8233  16.8278  21.2284  22.8475

          k = 0.0000 0.1088 0.4350 (   838 PWs)   bands (ev):

     9.2027   9.9908  11.3386  11.3745  11.4551  11.8825  11.9447  11.9889
    12.6201  12.7906  13.5653  13.5995  14.3064  14.5300  14.8423  14.8971
    14.9426  15.0880  15.7408  16.1028  16.8240  16.8246  22.0835  22.5938

          k = 0.0000 0.2175 0.2175 (   838 PWs)   bands (ev):

     8.0458  10.6562  10.6621  10.6621  11.0493  11.0493  11.3026  12.5917
    13.4658  13.5076  13.9374  13.9374  14.2570  14.5969  15.3133  15.5623
    15.8969  15.8969  16.3119  16.3119  16.5455  18.6325  18.6325  22.4699

          k = 0.0000 0.2175 0.3263 (   850 PWs)   bands (ev):

     8.7145  10.7100  10.9749  11.1674  11.3048  11.4748  11.7146  12.3380
    12.9860  13.2830  13.4854  13.5268  13.8245  14.4314  15.1294  15.4081
    15.5253  15.6357  15.6639  16.3046  16.3870  17.5171  19.6905  21.8503

          k = 0.0000 0.2175 0.4350 (   845 PWs)   bands (ev):

     9.5395  10.3222  11.4393  11.6311  11.6414  11.9758  11.9930  12.0524
    12.2153  12.7545  13.0692  13.2849  14.3195  14.5605  14.8119  14.9418
    14.9421  14.9979  16.1480  16.3057  16.3234  16.7384  20.5405  21.1960

          k = 0.0000 0.3263 0.3263 (   848 PWs)   bands (ev):

     9.3086  11.1483  11.2357  11.2357  11.6662  11.6662  12.0495  12.2856
    12.5688  12.5688  13.1561  13.3624  14.0140  14.2863  14.8436  15.1362
    15.1362  15.6386  15.6386  16.0004  16.1678  18.4665  18.4665  20.8144

          k = 0.0000 0.3263 0.4350 (   844 PWs)   bands (ev):

    10.0405  10.7791  11.4383  11.6826  11.8966  12.0972  12.1230  12.1352
    12.2004  12.6602  12.7033  13.0946  14.3276  14.4073  14.6138  14.6846
    14.7457  14.9728  15.6712  15.7739  16.8097  17.5489  19.2984  20.0290

          k = 0.0000 0.4350 0.4350 (   856 PWs)   bands (ev):

    10.6151  11.1754  11.1754  11.3647  12.2011  12.2011  12.2045  12.4556
    12.4745  12.5514  12.5514  12.9182  14.1695  14.3503  14.3751  14.3751
    14.6496  15.0839  15.0839  15.3397  17.5563  18.3516  18.3516  19.1337

          k = 0.1088 0.1088 0.1088 (   835 PWs)   bands (ev):

[...]

     9.3800  11.0325  11.0325  11.1326  12.0224  12.0224  12.1146  12.5145
    12.7400  12.7400  13.3005  13.4272  13.7701  14.6744  14.7461  14.7461
    14.7712  16.1794  16.1794  16.1841  16.2876  18.5935  18.5935  21.1330

          k = 0.1089 0.3267 0.4356 (   900 PWs)   bands (ev):

    10.0163  10.6326  11.2851  11.2952  12.2028  12.2199  12.2995  12.4419
    12.7200  12.7985  13.0805  13.1706  13.9349  14.2842  14.4448  14.5161
    15.0422  15.6076  16.0355  16.0732  16.8237  17.5817  19.4473  20.2365

          k = 0.1089 0.4356 0.4356 (   896 PWs)   bands (ev):

    10.4554  10.8910  10.8910  11.0976  12.4503  12.5960  12.5960  12.6340
    12.8035  12.8035  13.0396  13.0797  13.8974  14.1256  14.1256  14.1547
    15.1355  15.5337  15.5337  15.7098  17.5751  18.4055  18.4055  19.2384

          k = 0.2178 0.2178 0.2178 (   901 PWs)   bands (ev):

     8.5592  10.7807  10.7807  10.7807  11.6359  11.6359  11.6359  12.7551
    13.5065  13.5065  13.6343  13.6343  13.6343  14.9492  14.9492  14.9492
    15.1839  15.1839  16.8403  16.8403  16.8403  19.6493  19.6493  19.6493

          k = 0.2178 0.2178 0.3267 (   897 PWs)   bands (ev):

     9.0856  10.6877  10.9638  10.9638  11.9770  12.0081  12.0081  12.7206
    13.1650  13.2696  13.2696  13.4706  13.5621  14.4665  14.6377  14.6377
    15.1912  15.6424  16.6854  16.6854  16.7680  18.0069  20.4917  20.4917

          k = 0.2178 0.2178 0.4356 (   903 PWs)   bands (ev):

     9.7168  10.3138  11.1810  11.1810  12.0708  12.0708  12.3385  12.5758
    13.0262  13.2148  13.2148  13.2536  13.7421  14.0498  14.4218  14.4218
    15.6715  16.1093  16.5075  16.5082  16.5082  16.6488  21.2877  21.2878

          k = 0.2178 0.3267 0.3267 (   902 PWs)   bands (ev):

     9.4422  10.7214  10.7214  10.8811  12.2471  12.3591  12.3591  12.9809
    13.1188  13.1188  13.4061  13.4753  13.4797  14.1966  14.1966  14.2259
    15.3410  16.0175  16.5972  16.6392  16.6392  18.7541  18.7541  20.9306

          k = 0.2178 0.3267 0.4356 (   908 PWs)   bands (ev):

     9.8750  10.3274  10.7843  10.8354  12.3456  12.3920  12.8023  13.0831
    13.0844  13.2029  13.4452  13.5660  13.6404  13.8198  14.0094  14.0409
    15.6844  16.2826  16.4204  16.4282  16.6176  17.4343  19.5544  20.3579

          k = 0.2178 0.4356 0.4356 (   905 PWs)   bands (ev):

    10.1063  10.4125  10.4125  10.5785  12.5994  12.7533  12.7533  13.0246
    13.4969  13.5656  13.5656  13.6000  13.7268  13.7647  13.7647  13.8715
    15.7193  16.0910  16.0910  16.1831  17.3548  18.2607  18.2607  19.1735

          k = 0.3267 0.3267 0.3267 (   922 PWs)   bands (ev):

     9.5776  10.5040  10.5040  10.5040  12.5413  12.5413  12.5413  13.3248
    13.3248  13.6107  13.6987  13.6987  13.6987  13.8075  13.8075  13.8075
    15.9027  15.9027  16.7546  16.7546  16.7546  19.0654  19.0654  19.0654

          k = 0.3267 0.3267 0.4356 (   907 PWs)   bands (ev):

     9.8037  10.1220  10.3962  10.3962  12.6170  12.6170  12.8840  13.1611
    13.3326  13.4983  13.6151  13.6151  13.9184  13.9908  14.1846  14.1846
    16.2815  16.3753  16.6224  16.6224  16.6789  17.4321  19.3700  19.3700

          k = 0.3267 0.4356 0.4356 (   911 PWs)   bands (ev):

     9.8602  10.0596  10.0596  10.1514  12.8144  12.9017  12.9017  13.1112
    13.2254  13.3409  13.3409  13.3763  14.6327  14.6327  14.6905  14.7086
    16.2380  16.5391  16.5391  16.5527  16.9717  17.9408  17.9408  18.6607

          k = 0.4356 0.4356 0.4356 (   907 PWs)   bands (ev):

     9.7784   9.8777   9.8777   9.8777  13.0066  13.0066  13.0066  13.1117
    13.1117  13.1638  13.1638  13.1638  15.4961  15.4961  15.4961  15.7869
    16.5907  16.5907  16.7034  16.7034  16.7034  17.5261  17.5261  17.5261

 ------ SPIN DOWN ----------


          k = 0.0000 0.0000 0.0000 (   895 PWs)   bands (ev):

     6.9010  10.0603  10.0603  10.0603  10.4966  10.4966  10.4966  13.1377
    13.1377  13.1377  15.1397  15.1397  16.6621  16.6621  16.6621  17.1169
    17.1169  17.1169  17.1169  17.1169  17.1169  18.5404  18.5404  18.5404

          k = 0.0000 0.0000 0.1089 (   904 PWs)   bands (ev):

     7.0597  10.1162  10.1757  10.1757  10.5614  10.5934  10.5934  13.0368
    13.2186  13.2186  15.0284  15.1810  16.2393  16.2393  16.4942  16.4942
    16.6108  16.9184  16.9184  17.1174  17.1174  17.7177  19.5082  19.5082

          k = 0.0000 0.0000 0.2178 (   892 PWs)   bands (ev):

     7.5245  10.2392  10.5012  10.5012  10.7524  10.8835  10.8835  12.7571
    13.4593  13.4593  14.7215  15.0080  15.0080  15.3017  16.0293  16.0293
    16.1369  16.4024  16.4024  16.4656  17.1188  17.1188  21.0029  21.0029

          k = 0.0000 0.0000 0.3267 (   884 PWs)   bands (ev):

     8.2533  10.2769  10.9545  10.9545  11.0557  11.3623  11.3623  12.3545
    13.8520  13.8520  13.8648  13.8648  14.3049  14.7161  15.4020  15.4020
    15.4903  15.7250  15.7250  16.2489  17.1214  17.1214  22.5590  22.5590

          k = 0.0000 0.0000 0.4356 (   880 PWs)   bands (ev):

     9.1389   9.9277  11.3345  11.3345  11.4494  11.8988  12.0253  12.0253
    12.8635  12.8635  13.9457  13.9578  14.3822  14.3822  14.9013  14.9013
    15.0229  15.0229  15.7291  15.9922  17.1209  17.1209  23.5818  23.5818

          k = 0.0000 0.1089 0.1089 (   897 PWs)   bands (ev):

     7.2153  10.2335  10.2335  10.2696  10.6560  10.6560  10.7029  12.9915
    13.2500  13.2861  14.9993  15.1580  15.8072  15.8885  15.8885  16.3475
    16.5034  16.5034  16.9182  16.9182  16.9920  18.7629  18.7629  20.1589

          k = 0.0000 0.1089 0.2178 (   896 PWs)   bands (ev):

     7.6706  10.3618  10.5426  10.5653  10.8401  10.9389  11.0173  12.7519
    13.4652  13.4782  14.6879  14.7484  14.8383  15.0922  15.2815  15.9323
    16.0733  16.3155  16.3999  16.9177  16.9246  17.5242  20.1134  21.4675

          k = 0.0000 0.1089 0.3267 (   892 PWs)   bands (ev):

     8.3850  10.4031  10.9605  11.0321  11.1322  11.4056  11.4813  12.3751
    13.6005  13.7146  13.8019  13.8517  14.1615  14.4534  15.3608  15.4814
    15.5160  15.7221  15.8313  16.6660  16.9096  16.9150  21.3254  23.1504

          k = 0.0000 0.1089 0.4356 (   888 PWs)   bands (ev):

     9.2575  10.0464  11.3937  11.4303  11.5102  11.9407  12.0044  12.0489
    12.6839  12.8551  13.6343  13.6685  14.3798  14.6043  14.9173  14.9731
    15.0197  15.1654  15.8223  16.1866  16.9100  16.9130  22.1836  22.6919

          k = 0.0000 0.2178 0.2178 (   885 PWs)   bands (ev):

     8.0979  10.7075  10.7137  10.7137  11.1021  11.1021  11.3581  12.6552
    13.5346  13.5766  14.0082  14.0082  14.3289  14.6723  15.3930  15.6400
    15.9785  15.9785  16.3954  16.3954  16.6327  18.7202  18.7202  22.7998

          k = 0.0000 0.2178 0.3267 (   892 PWs)   bands (ev):

     8.7684  10.7638  11.0289  11.2223  11.3592  11.5311  11.7729  12.3999
    13.0520  13.3506  13.5541  13.5953  13.8952  14.5054  15.2067  15.4873
    15.6046  15.7161  15.7451  16.3896  16.4714  17.6027  19.7873  21.9517

          k = 0.0000 0.2178 0.4356 (   894 PWs)   bands (ev):

     9.5954  10.3793  11.4951  11.6886  11.6983  12.0356  12.0526  12.1126
    12.2771  12.8188  13.1352  13.3520  14.3929  14.6348  14.8869  15.0178
    15.0193  15.0751  16.2317  16.3898  16.4076  16.8250  20.6340  21.2909

          k = 0.0000 0.3267 0.3267 (   886 PWs)   bands (ev):

     9.3641  11.2035  11.2927  11.2927  11.7238  11.7238  12.1097  12.3471
    12.6322  12.6322  13.2226  13.4302  14.0856  14.3593  14.9199  15.2135
    15.2135  15.7189  15.7189  16.0846  16.2512  18.5539  18.5539  20.9136

          k = 0.0000 0.3267 0.4356 (   895 PWs)   bands (ev):

    10.0977  10.8377  11.4958  11.7425  11.9559  12.1565  12.1836  12.1957
    12.2609  12.7240  12.7666  13.1604  14.4007  14.4812  14.6879  14.7597
    14.8208  15.0497  15.7518  15.8550  16.8967  17.6388  19.3858  20.1171

          k = 0.0000 0.4356 0.4356 (   894 PWs)   bands (ev):

    10.6737  11.2345  11.2345  11.4234  12.2619  12.2619  12.2658  12.5176
    12.5371  12.6136  12.6136  12.9829  14.2417  14.4235  14.4484  14.4484
    14.7242  15.1615  15.1615  15.4193  17.6469  18.4435  18.4435  19.2261

          k = 0.1089 0.1089 0.1089 (   895 PWs)   bands (ev):

     7.3667  10.3267  10.3267  10.3267  10.7666  10.7666  10.7666  12.9562
    13.3082  13.3082  15.0613  15.0613  15.5074  15.5074  15.5074  16.1775
    16.1775  16.1775  16.9549  16.9549  16.9549  19.3616  19.3616  19.3616

          k = 0.1089 0.1089 0.2178 (   897 PWs)   bands (ev):

     7.8099  10.4524  10.5960  10.5960  10.9499  11.0802  11.0802  12.7556
    13.4693  13.4833  14.5576  14.5576  14.7448  14.8144  15.2404  15.7545
    15.8298  15.8298  16.8099  16.8764  16.8764  17.9672  20.5036  20.5036

          k = 0.1089 0.1089 0.3267 (   890 PWs)   bands (ev):

     8.5047  10.4875  11.0137  11.0137  11.2383  11.5342  11.5342  12.4113
    13.5787  13.5787  13.6587  13.7746  13.8951  14.6242  15.2179  15.3555
    15.3555  15.5151  16.5494  16.6992  16.8020  16.8020  21.6244  21.6244

          k = 0.1089 0.1089 0.4356 (   890 PWs)   bands (ev):

     9.3543  10.1296  11.4733  11.4733  11.6009  11.9549  11.9549  12.0058
    12.7908  12.7908  13.4628  13.5486  14.1761  14.6698  14.9275  14.9275
    14.9355  15.6808  15.8534  16.2138  16.7689  16.7689  22.3336  22.3336

          k = 0.1089 0.2178 0.2178 (   897 PWs)   bands (ev):

     8.2164  10.7085  10.7085  10.7396  11.2661  11.2661  11.4256  12.6937
    13.5210  13.5408  13.9234  13.9234  14.1221  14.8209  15.3263  15.4104
    15.4681  15.4681  16.7346  16.7346  16.7384  18.9706  18.9706  21.3922

          k = 0.1089 0.2178 0.3267 (   894 PWs)   bands (ev):

     8.8506  10.7183  11.0313  11.1034  11.5517  11.7117  11.8223  12.4868
    13.1117  13.3027  13.4867  13.5332  13.7373  14.7699  14.9573  15.0333
    15.1663  15.6922  16.4033  16.5584  16.5607  17.6433  19.9863  22.1342

          k = 0.1089 0.2178 0.4356 (   893 PWs)   bands (ev):

     9.6253  10.3506  11.4567  11.5740  11.8701  11.9027  11.9557  12.1893
    12.7133  12.9630  13.1060  13.3260  14.0391  14.4539  14.7529  14.8303
    15.1126  15.7826  16.1738  16.4485  16.4485  16.7571  20.8400  21.5376

          k = 0.1089 0.3267 0.3267 (   904 PWs)   bands (ev):

     9.3800  11.0325  11.0325  11.1326  12.0224  12.0224  12.1146  12.5145
    12.7400  12.7400  13.3005  13.4272  13.7701  14.6744  14.7461  14.7461
    14.7712  16.1793  16.1793  16.1841  16.2876  18.5935  18.5935  21.1330

          k = 0.1089 0.3267 0.4356 (   900 PWs)   bands (ev):

    10.0163  10.6326  11.2851  11.2952  12.2028  12.2199  12.2995  12.4419
    12.7200  12.7985  13.0805  13.1706  13.9349  14.2842  14.4448  14.5161
    15.0422  15.6076  16.0354  16.0732  16.8237  17.5817  19.4473  20.2365

          k = 0.1089 0.4356 0.4356 (   896 PWs)   bands (ev):

    10.4554  10.8910  10.8910  11.0976  12.4503  12.5960  12.5960  12.6340
    12.8035  12.8035  13.0396  13.0797  13.8974  14.1256  14.1256  14.1547
    15.1355  15.5337  15.5337  15.7098  17.5751  18.4055  18.4055  19.2384

          k = 0.2178 0.2178 0.2178 (   901 PWs)   bands (ev):

     8.5592  10.7807  10.7807  10.7807  11.6359  11.6359  11.6359  12.7551
    13.5065  13.5065  13.6342  13.6342  13.6342  14.9492  14.9492  14.9492
    15.1839  15.1839  16.8403  16.8403  16.8403  19.6493  19.6493  19.6493

          k = 0.2178 0.2178 0.3267 (   897 PWs)   bands (ev):

     9.0856  10.6877  10.9638  10.9638  11.9770  12.0081  12.0081  12.7206
    13.1650  13.2696  13.2696  13.4706  13.5620  14.4665  14.6377  14.6377
    15.1912  15.6424  16.6854  16.6854  16.7680  18.0069  20.4917  20.4917

          k = 0.2178 0.2178 0.4356 (   903 PWs)   bands (ev):

     9.7168  10.3138  11.1810  11.1810  12.0708  12.0708  12.3385  12.5758
    13.0262  13.2148  13.2148  13.2535  13.7421  14.0498  14.4218  14.4218
    15.6715  16.1093  16.5074  16.5082  16.5082  16.6488  21.2878  21.2878

          k = 0.2178 0.3267 0.3267 (   902 PWs)   bands (ev):

     9.4422  10.7214  10.7214  10.8811  12.2471  12.3591  12.3591  12.9809
    13.1188  13.1188  13.4060  13.4753  13.4797  14.1966  14.1966  14.2259
    15.3410  16.0175  16.5971  16.6392  16.6392  18.7541  18.7541  20.9306

          k = 0.2178 0.3267 0.4356 (   908 PWs)   bands (ev):

     9.8750  10.3274  10.7843  10.8353  12.3456  12.3920  12.8022  13.0831
    13.0844  13.2029  13.4452  13.5659  13.6403  13.8198  14.0094  14.0409
    15.6844  16.2826  16.4204  16.4282  16.6176  17.4343  19.5544  20.3579

          k = 0.2178 0.4356 0.4356 (   905 PWs)   bands (ev):

    10.1063  10.4125  10.4125  10.5785  12.5993  12.7533  12.7533  13.0246
    13.4969  13.5656  13.5656  13.6000  13.7267  13.7647  13.7647  13.8715
    15.7193  16.0910  16.0910  16.1831  17.3548  18.2607  18.2607  19.1735

          k = 0.3267 0.3267 0.3267 (   922 PWs)   bands (ev):

     9.5776  10.5040  10.5040  10.5040  12.5413  12.5413  12.5413  13.3247
    13.3247  13.6107  13.6987  13.6987  13.6987  13.8075  13.8075  13.8075
    15.9026  15.9026  16.7546  16.7546  16.7546  19.0654  19.0654  19.0654

          k = 0.3267 0.3267 0.4356 (   907 PWs)   bands (ev):

     9.8037  10.1220  10.3962  10.3962  12.6170  12.6170  12.8840  13.1611
    13.3326  13.4983  13.6151  13.6151  13.9184  13.9908  14.1846  14.1846
    16.2814  16.3753  16.6224  16.6224  16.6789  17.4321  19.3700  19.3700

          k = 0.3267 0.4356 0.4356 (   911 PWs)   bands (ev):

     9.8602  10.0596  10.0596  10.1514  12.8144  12.9017  12.9017  13.1112
    13.2254  13.3409  13.3409  13.3763  14.6327  14.6327  14.6905  14.7085
    16.2380  16.5391  16.5391  16.5526  16.9717  17.9408  17.9408  18.6607

          k = 0.4356 0.4356 0.4356 (   907 PWs)   bands (ev):

     9.7784   9.8777   9.8777   9.8777  13.0066  13.0066  13.0066  13.1117
    13.1117  13.1638  13.1638  13.1638  15.4961  15.4961  15.4961  15.7869
    16.5907  16.5907  16.7034  16.7034  16.7034  17.5261  17.5261  17.5261

     the Fermi energy is    16.6677 ev

!    total energy              =   -2989.17117969 Ry
     total all-electron energy =   -147309.922809 Ry
     estimated scf accuracy    <          2.4E-09 Ry
     smearing contrib. (-TS)   =      -0.00003430 Ry
     internal energy E=F+TS    =   -2989.17114540 Ry

     The total energy is F=E-TS. E is the sum of the following terms:
     one-electron contribution =      71.40577148 Ry
     hartree contribution      =      17.76638121 Ry
     xc contribution           =     -95.55828878 Ry
     ewald contribution        =    -243.87690214 Ry
     one-center paw contrib.   =   -2738.90810716 Ry

     total magnetization       =    -0.00 Bohr mag/cell
     absolute magnetization    =     0.00 Bohr mag/cell

     convergence has been achieved in  15 iterations

     Forces acting on atoms (cartesian axes, Ry/au):

     atom    1 type  1   force =     0.00000000    0.00000000    0.00000000
     atom    2 type  1   force =     0.00000000    0.00000000    0.00000000
     atom    3 type  1   force =     0.00000000    0.00000000    0.00000000
     atom    4 type  1   force =     0.00000000    0.00000000    0.00000000
     The non-local contrib.  to forces
     atom    1 type  1   force =     0.00000000    0.00000000    0.00000000
     atom    2 type  1   force =     0.00000000    0.00000000    0.00000000
     atom    3 type  1   force =     0.00000000    0.00000000    0.00000000
     atom    4 type  1   force =     0.00000000    0.00000000    0.00000000
     The ionic contribution  to forces
     atom    1 type  1   force =    -0.00000000   -0.00000000   -0.00000000
     atom    2 type  1   force =    -0.00000000    0.00000000    0.00000000
     atom    3 type  1   force =     0.00000000   -0.00000000    0.00000000
     atom    4 type  1   force =     0.00000000    0.00000000   -0.00000000
     The local contribution  to forces
     atom    1 type  1   force =     0.00000000    0.00000000    0.00000000
     atom    2 type  1   force =     0.00000000    0.00000000    0.00000000
     atom    3 type  1   force =     0.00000000    0.00000000    0.00000000
     atom    4 type  1   force =     0.00000000    0.00000000    0.00000000
     The core correction contribution to forces
     atom    1 type  1   force =     0.00000000   -0.00000000   -0.00000000
     atom    2 type  1   force =     0.00000000    0.00000000    0.00000000
     atom    3 type  1   force =     0.00000000    0.00000000    0.00000000
     atom    4 type  1   force =     0.00000000    0.00000000   -0.00000000
     The Hubbard contrib.    to forces
     atom    1 type  1   force =     0.00000000    0.00000000    0.00000000
     atom    2 type  1   force =     0.00000000    0.00000000    0.00000000
     atom    3 type  1   force =     0.00000000    0.00000000    0.00000000
     atom    4 type  1   force =     0.00000000    0.00000000    0.00000000
     The SCF correction term to forces
     atom    1 type  1   force =     0.00000000   -0.00000000    0.00000000
     atom    2 type  1   force =    -0.00000000    0.00000000   -0.00000000
     atom    3 type  1   force =     0.00000000    0.00000000   -0.00000000
     atom    4 type  1   force =     0.00000000   -0.00000000    0.00000000

     Total force =     0.000000     Total SCF correction =     0.000000


     Computing stress (Cartesian axis) and pressure

          total   stress  (Ry/bohr**3)                   (kbar)     P=       -3.43
  -0.00002334   0.00000000   0.00000000           -3.43        0.00        0.00
   0.00000000  -0.00002334   0.00000000            0.00       -3.43        0.00
   0.00000000   0.00000000  -0.00002334            0.00        0.00       -3.43


     Writing all to output data dir ./Pt.save/

     init_run     :      1.37s CPU      1.54s WALL (       2 calls)
     electrons    :     80.45s CPU     83.39s WALL (       6 calls)
     update_pot   :      1.24s CPU      1.26s WALL (       4 calls)
     forces       :      0.75s CPU      0.75s WALL (       6 calls)
     stress       :      5.27s CPU      5.28s WALL (       6 calls)

     Called by init_run:
     wfcinit      :      0.57s CPU      0.59s WALL (       2 calls)
     potinit      :      0.57s CPU      0.67s WALL (       2 calls)
     hinit0       :      0.21s CPU      0.24s WALL (       2 calls)

     Called by electrons:
     c_bands      :     56.81s CPU     58.88s WALL (      72 calls)
     sum_band     :      5.35s CPU      5.57s WALL (      72 calls)
     v_of_rho     :      0.19s CPU      0.19s WALL (      77 calls)
     newd         :      0.26s CPU      0.26s WALL (      77 calls)
     PAW_pot      :     20.24s CPU     20.98s WALL (      81 calls)
     mix_rho      :      0.05s CPU      0.05s WALL (      72 calls)

     Called by c_bands:
     init_us_2    :      0.56s CPU      0.58s WALL (   11340 calls)
     init_us_2:cp :      0.54s CPU      0.57s WALL (   11340 calls)
     cegterg      :     54.77s CPU     56.77s WALL (    5040 calls)

     Called by *egterg:
     cdiaghg      :     13.95s CPU     14.44s WALL (   25795 calls)
     h_psi        :     31.89s CPU     33.09s WALL (   26285 calls)
     s_psi        :      1.31s CPU      1.37s WALL (   26285 calls)
     g_psi        :      0.17s CPU      0.18s WALL (   21105 calls)

     Called by h_psi:
     h_psi:calbec :      2.54s CPU      2.64s WALL (   26285 calls)
     vloc_psi     :     27.79s CPU     28.82s WALL (   26285 calls)
     add_vuspsi   :      1.38s CPU      1.44s WALL (   26285 calls)

     General routines
     calbec       :      4.28s CPU      4.41s WALL (   33705 calls)
     fft          :      0.16s CPU      0.17s WALL (    1875 calls)
     ffts         :      0.01s CPU      0.01s WALL (     144 calls)
     fftw         :     28.67s CPU     29.74s WALL ( 1021564 calls)

     Parallel routines

     PWSCF        :   1m30.51s CPU   1m33.71s WALL


   This run was terminated on:  23: 4: 8   3May2023            

=------------------------------------------------------------------------------=
   JOB DONE.
=------------------------------------------------------------------------------=
