
     Program PWSCF v.7.1 starts on 17Jun2023 at 11:11:20 

     This program is part of the open-source Quantum ESPRESSO suite
     for quantum simulation of materials; please cite
         "P. Giannozzi et al., J. Phys.:Condens. Matter 21 395502 (2009);
         "P. Giannozzi et al., J. Phys.:Condens. Matter 29 465901 (2017);
         "P. Giannozzi et al., J. Chem. Phys. 152 154105 (2020);
          URL http://www.quantum-espresso.org", 
     in publications or presentations arising from this work. More details at
     http://www.quantum-espresso.org/quote

     Parallel version (MPI), running on    24 processors

     MPI processes distributed on     1 nodes
     69922 MiB available memory on the printing compute node when the environment starts
 
     Waiting for input...
     Reading input from standard input

     Current dimensions of program PWSCF are:
     Max number of different atomic species (ntypx) = 10
     Max number of k-points (npk) =  40000
     Max angular momentum in pseudopotentials (lmaxx) =  4
     file Al.pbe-n-kjpaw_psl.1.0.0.UPF: wavefunction(s)  3S 3P renormalized
     Found identity + ( -0.5000  0.0000  0.0000) symmetry
     This is a supercell, fractional translations are disabled
     Message from routine setup:
     using ibrav=0 with symmetry is DISCOURAGED, use correct ibrav instead
 
     R & G space division:  proc/nbgrp/npool/nimage =      24
     Subspace diagonalization in iterative solution of the eigenvalue problem:
     a serial algorithm will be used

 
     Parallelization info
     --------------------
     sticks:   dense  smooth     PW     G-vecs:    dense   smooth      PW
     Min          81      53     15                 7361     3997     607
     Max          82      54     16                 7370     4010     618
     Sum        1945    1285    367               176729    96075   14657
 
     Using Slab Decomposition
 


     bravais-lattice index     =            0
     lattice parameter (alat)  =      10.8235  a.u.
     unit-cell volume          =    2813.7848 (a.u.)^3
     number of atoms/cell      =           12
     number of atomic types    =            1
     number of electrons       =        36.00
     number of Kohn-Sham states=           22
     kinetic-energy cutoff     =      40.0000  Ry
     charge density cutoff     =     240.0000  Ry
     scf convergence threshold =      1.0E-07
     mixing beta               =       0.7000
     number of iterations used =            8  plain     mixing
     energy convergence thresh.=      1.0E-04
     force convergence thresh. =      7.0E-04
     Exchange-correlation= SLA  PW   PBX  PBC
                           (   1   4   3   4   0   0   0)
     nstep                     =           50


     celldm(1)=  10.823529  celldm(2)=   0.000000  celldm(3)=   0.000000
     celldm(4)=   0.000000  celldm(5)=   0.000000  celldm(6)=   0.000000

     crystal axes: (cart. coord. in units of alat)
               a(1) = (   1.000000   0.000000   0.000000 )  
               a(2) = (   0.500000   0.866025   0.000000 )  
               a(3) = (   0.000000   0.000000   2.562439 )  

     reciprocal axes: (cart. coord. in units 2 pi/alat)
               b(1) = (  1.000000 -0.577350  0.000000 )  
               b(2) = (  0.000000  1.154701  0.000000 )  
               b(3) = (  0.000000  0.000000  0.390253 )  


     PseudoPot. # 1 for Al read from file:
     /home/yyj/SSSP_1.3.0_PBE_efficiency/Al.pbe-n-kjpaw_psl.1.0.0.UPF
     MD5 check sum: cfc449ca30b5f3223ec38ddd88ac046d
     Pseudo is Projector augmented-wave + core cor, Zval =  3.0
     Generated using "atomic" code by A. Dal Corso  v.5.1
     Shape of augmentation charge: PSQ
     Using radial grid of 1135 points,  6 beta functions with: 
                l(1) =   0
                l(2) =   0
                l(3) =   1
                l(4) =   1
                l(5) =   2
                l(6) =   2
     Q(r) pseudized with 0 coefficients 


     atomic species   valence    mass     pseudopotential
        Al             3.00    26.98154     Al( 1.00)

      6 Sym. Ops. (no inversion) found



   Cartesian axes

     site n.     atom                  positions (alat units)
         1           Al  tau(   1) = (   0.2500000   0.1443376   0.0000000  )
         2           Al  tau(   2) = (   0.7500001   0.1443376   0.0000000  )
         3           Al  tau(   3) = (   0.4999999   0.5773502   0.0000000  )
         4           Al  tau(   4) = (   1.0000000   0.5773502   0.0000000  )
         5           Al  tau(   5) = (   0.0000000   0.2886752   0.4082484  )
         6           Al  tau(   6) = (   0.4999999   0.2886752   0.4082484  )
         7           Al  tau(   7) = (   0.2500000   0.7216878   0.4082484  )
         8           Al  tau(   8) = (   0.7500001   0.7216878   0.4082484  )
         9           Al  tau(   9) = (   0.0000000   0.0000000   0.8164965  )
        10           Al  tau(  10) = (   0.4999999   0.0000000   0.8164965  )
        11           Al  tau(  11) = (   0.2500000   0.4330126   0.8164965  )
        12           Al  tau(  12) = (   0.7500001   0.4330126   0.8164965  )

     number of k points=    10  Gaussian smearing, width (Ry)=  0.0030
                       cart. coord. in units 2pi/alat
        k(    1) = (   0.0000000   0.0000000   0.0000000), wk =   0.0312500
        k(    2) = (   0.0000000   0.1443376   0.0000000), wk =   0.1875000
        k(    3) = (   0.0000000   0.2886751   0.0000000), wk =   0.1875000
        k(    4) = (   0.0000000   0.4330127   0.0000000), wk =   0.1875000
        k(    5) = (   0.0000000  -0.5773503   0.0000000), wk =   0.0937500
        k(    6) = (   0.1250000   0.2165064   0.0000000), wk =   0.1875000
        k(    7) = (   0.1250000   0.3608439   0.0000000), wk =   0.3750000
        k(    8) = (   0.1250000  -0.6495191   0.0000000), wk =   0.3750000
        k(    9) = (   0.2500000  -0.7216878   0.0000000), wk =   0.1875000
        k(   10) = (   0.2500000  -0.5773503   0.0000000), wk =   0.1875000

     Dense  grid:   176729 G-vectors     FFT dimensions: (  54,  54, 144)

     Smooth grid:    96075 G-vectors     FFT dimensions: (  45,  45, 120)

     Estimated max dynamical RAM per process >      33.80 MB

     Estimated total dynamical RAM >     811.28 MB

     Initial potential from superposition of free atoms

     starting charge      35.9725, renormalised to      36.0000
     Starting wfcs are   48 randomized atomic wfcs
     Checking if some PAW data can be deallocated... 

     total cpu time spent up to now is        0.8 secs

     Self-consistent Calculation

     iteration #  1     ecut=    40.00 Ry     beta= 0.70
     Davidson diagonalization with overlap
     ethr =  1.00E-02,  avg # of iterations =  3.6

     total cpu time spent up to now is        1.6 secs

     total energy              =    -473.48031253 Ry
     estimated scf accuracy    <       0.56158445 Ry

     iteration #  2     ecut=    40.00 Ry     beta= 0.70
     Davidson diagonalization with overlap
     ethr =  1.56E-03,  avg # of iterations =  5.1

     total cpu time spent up to now is        2.4 secs

     total energy              =    -472.96348483 Ry
     estimated scf accuracy    <       6.49745338 Ry

     iteration #  3     ecut=    40.00 Ry     beta= 0.70
     Davidson diagonalization with overlap
     ethr =  1.56E-03,  avg # of iterations =  5.0

     total cpu time spent up to now is        3.2 secs

     total energy              =    -473.81646481 Ry
     estimated scf accuracy    <       0.03024361 Ry

     iteration #  4     ecut=    40.00 Ry     beta= 0.70
     Davidson diagonalization with overlap
     ethr =  8.40E-05,  avg # of iterations =  6.5

     total cpu time spent up to now is        4.0 secs

     total energy              =    -473.82418690 Ry
     estimated scf accuracy    <       0.02674309 Ry

     iteration #  5     ecut=    40.00 Ry     beta= 0.70
     Davidson diagonalization with overlap
     ethr =  7.43E-05,  avg # of iterations =  2.3

     total cpu time spent up to now is        4.6 secs

     total energy              =    -473.82373454 Ry
     estimated scf accuracy    <       0.04966567 Ry

     iteration #  6     ecut=    40.00 Ry     beta= 0.70
     Davidson diagonalization with overlap
     ethr =  7.43E-05,  avg # of iterations =  1.8

     negative rho (up, down):  1.297E-08 0.000E+00

     total cpu time spent up to now is        5.2 secs

     total energy              =    -473.82687597 Ry
     estimated scf accuracy    <       0.00123038 Ry

     iteration #  7     ecut=    40.00 Ry     beta= 0.70
     Davidson diagonalization with overlap
     c_bands:  1 eigenvalues not converged
     ethr =  3.42E-06,  avg # of iterations =  8.6

     negative rho (up, down):  1.584E-06 0.000E+00

     total cpu time spent up to now is        6.1 secs

     total energy              =    -473.82726332 Ry
     estimated scf accuracy    <       0.00037594 Ry

     iteration #  8     ecut=    40.00 Ry     beta= 0.70
     Davidson diagonalization with overlap
     ethr =  1.04E-06,  avg # of iterations =  4.5

     negative rho (up, down):  1.382E-06 0.000E+00

     total cpu time spent up to now is        6.8 secs

     total energy              =    -473.82736703 Ry
     estimated scf accuracy    <       0.00027018 Ry

     iteration #  9     ecut=    40.00 Ry     beta= 0.70
     Davidson diagonalization with overlap
     ethr =  7.51E-07,  avg # of iterations =  1.4

     negative rho (up, down):  5.996E-07 0.000E+00

     total cpu time spent up to now is        7.4 secs

     total energy              =    -473.82736121 Ry
     estimated scf accuracy    <       0.00009089 Ry

     iteration # 10     ecut=    40.00 Ry     beta= 0.70
     Davidson diagonalization with overlap
     ethr =  2.52E-07,  avg # of iterations =  3.3

     negative rho (up, down):  5.227E-07 0.000E+00

     total cpu time spent up to now is        8.1 secs

     total energy              =    -473.82737011 Ry
     estimated scf accuracy    <       0.00000353 Ry

     iteration # 11     ecut=    40.00 Ry     beta= 0.70
     Davidson diagonalization with overlap
     c_bands:  1 eigenvalues not converged
     c_bands:  1 eigenvalues not converged
     ethr =  9.81E-09,  avg # of iterations =  9.6

     negative rho (up, down):  5.205E-07 0.000E+00

     total cpu time spent up to now is        9.0 secs

     total energy              =    -473.82737361 Ry
     estimated scf accuracy    <       0.00000641 Ry

     iteration # 12     ecut=    40.00 Ry     beta= 0.70
     Davidson diagonalization with overlap
     ethr =  9.81E-09,  avg # of iterations =  2.8

     negative rho (up, down):  5.290E-07 0.000E+00

     total cpu time spent up to now is        9.6 secs

     total energy              =    -473.82737287 Ry
     estimated scf accuracy    <       0.00000465 Ry

     iteration # 13     ecut=    40.00 Ry     beta= 0.70
     Davidson diagonalization with overlap
     ethr =  9.81E-09,  avg # of iterations =  2.1

     negative rho (up, down):  5.320E-07 0.000E+00

     total cpu time spent up to now is       10.3 secs

     total energy              =    -473.82737341 Ry
     estimated scf accuracy    <       0.00000041 Ry

     iteration # 14     ecut=    40.00 Ry     beta= 0.70
     Davidson diagonalization with overlap
     ethr =  1.14E-09,  avg # of iterations =  4.9

     negative rho (up, down):  5.316E-07 0.000E+00

     total cpu time spent up to now is       11.0 secs

     total energy              =    -473.82737336 Ry
     estimated scf accuracy    <       0.00000171 Ry

     iteration # 15     ecut=    40.00 Ry     beta= 0.70
     Davidson diagonalization with overlap
     ethr =  1.14E-09,  avg # of iterations =  1.9

     negative rho (up, down):  5.318E-07 0.000E+00

     total cpu time spent up to now is       11.7 secs

     total energy              =    -473.82737336 Ry
     estimated scf accuracy    <       0.00000028 Ry

     iteration # 16     ecut=    40.00 Ry     beta= 0.70
     Davidson diagonalization with overlap
     ethr =  7.83E-10,  avg # of iterations =  3.8

     negative rho (up, down):  5.324E-07 0.000E+00

     total cpu time spent up to now is       12.3 secs

     End of self-consistent calculation

          k = 0.0000 0.0000 0.0000 ( 11947 PWs)   bands (ev):

    -8.6857  -7.0365  -4.4227  -2.8273  -2.8273  -2.8273  -2.8022  -2.8022
    -2.8022  -1.4667  -1.4667  -1.4667  -1.3005  -0.9409  -0.9409  -0.9409
     1.3295   1.3295   1.3295   1.5615   1.5615   1.5615

          k = 0.0000 0.1443 0.0000 ( 11985 PWs)   bands (ev):

    -8.5919  -6.9434  -4.3299  -4.1649  -3.4421  -3.4421  -2.5649  -2.0173
    -2.0173  -1.8717  -1.8717  -1.3353  -1.2121  -0.3835  -0.3835  -0.0441
     0.5306   0.8560   0.8560   2.2197   2.2197   2.2608

          k = 0.0000 0.2887 0.0000 ( 12015 PWs)   bands (ev):

    -8.3110  -6.6645  -5.3494  -4.0521  -3.8929  -3.8929  -3.7292  -2.2968
    -2.2968  -1.1821  -1.0708  -1.0708  -0.9470   0.2150   0.2150   0.4417
     0.7913   0.7913   1.8626   2.1064   2.5239   3.0201

          k = 0.0000 0.4330 0.0000 ( 12025 PWs)   bands (ev):

    -7.8440  -6.3603  -6.2011  -4.7296  -4.1644  -4.1644  -3.5910  -2.5600
    -2.5600  -2.1368  -0.5060  -0.2337  -0.2337   0.3650   0.3650   0.8790
     1.7763   1.7763   2.2863   2.7552   2.7553   2.9516

          k = 0.0000-0.5774 0.0000 ( 12036 PWs)   bands (ev):

    -7.1929  -7.1929  -5.5551  -5.5551  -4.2551  -4.2551  -2.9502  -2.9501
    -2.6484  -2.6484  -0.1609  -0.1609   0.1086   0.1086   1.3598   1.3598
     1.6084   1.6084   2.7348   2.7348   3.0707   3.0709

          k = 0.1250 0.2165 0.0000 ( 12005 PWs)   bands (ev):

    -8.4046  -6.7574  -4.7101  -4.7101  -4.1446  -3.0986  -3.0986  -2.5606
    -2.5309  -1.2067  -1.0354  -0.7499  -0.7499  -0.6705  -0.1583  -0.1583
     1.2747   1.2747   1.5813   1.7903   2.4366   2.5152

          k = 0.1250 0.3608 0.0000 ( 12006 PWs)   bands (ev):

    -8.0306  -6.3862  -5.8079  -5.0749  -4.1826  -3.7751  -3.4577  -2.9020
    -1.6045  -1.4839  -1.3429  -0.9184  -0.6822   0.1428   0.7043   1.2033
     1.3255   1.6450   2.1157   2.3640   2.4139   2.7835

          k = 0.1250-0.6495 0.0000 ( 12036 PWs)   bands (ev):

    -7.4716  -6.7297  -5.8315  -5.2577  -5.0958  -3.6380  -3.2240  -3.0807
    -2.4963  -1.5001  -1.0742  -0.2818  -0.1541   0.5436   0.8171   1.2598
     1.6124   1.7048   2.1636   2.9282   3.2019   3.3122

          k = 0.2500-0.7217 0.0000 ( 12043 PWs)   bands (ev):

    -7.5646  -6.0838  -6.0838  -5.9238  -4.4557  -4.4556  -3.3156  -1.8673
    -1.8673  -1.7626  -1.7235  -0.4393  -0.2418   0.1297   0.9915   1.1387
     1.1387   2.1008   2.5468   2.5468   2.8318   3.1234

          k = 0.2500-0.5774 0.0000 ( 12031 PWs)   bands (ev):

    -6.9148  -6.9148  -6.1758  -5.2793  -5.2793  -4.5468  -2.6771  -2.6771
    -1.9557  -1.8307  -0.4412  -0.4171  -0.3274   0.3715   0.3715   1.0242
     1.0627   1.3325   2.6605   3.6558   3.6822   3.7895

     the Fermi energy is     1.7502 ev

!    total energy              =    -473.82737335 Ry
     total all-electron energy =     -5827.540752 Ry
     estimated scf accuracy    <       0.00000005 Ry
     smearing contrib. (-TS)   =      -0.00036382 Ry
     internal energy E=F+TS    =    -473.82700953 Ry

     The total energy is F=E-TS. E is the sum of the following terms:
     one-electron contribution =    -170.10125392 Ry
     hartree contribution      =      96.02297707 Ry
     xc contribution           =     -30.41078567 Ry
     ewald contribution        =      46.80299174 Ry
     one-center paw contrib.   =    -416.14093876 Ry

     convergence has been achieved in  16 iterations

     negative rho (up, down):  5.324E-07 0.000E+00

     Forces acting on atoms (cartesian axes, Ry/au):

     atom    1 type  1   force =    -0.00000001   -0.00000001    0.00394924
     atom    2 type  1   force =     0.00000001   -0.00000001    0.00394924
     atom    3 type  1   force =     0.00000000    0.00000002    0.00394924
     atom    4 type  1   force =    -0.00000000    0.00000000    0.00394926
     atom    5 type  1   force =     0.00000000   -0.00000031    0.00000670
     atom    6 type  1   force =     0.00000000    0.00000000    0.00000665
     atom    7 type  1   force =     0.00000027    0.00000016    0.00000670
     atom    8 type  1   force =    -0.00000027    0.00000016    0.00000670
     atom    9 type  1   force =     0.00000000   -0.00000000   -0.00395681
     atom   10 type  1   force =     0.00000000   -0.00000114   -0.00395564
     atom   11 type  1   force =    -0.00000099    0.00000057   -0.00395564
     atom   12 type  1   force =     0.00000099    0.00000057   -0.00395564

     Total force =     0.007912     Total SCF correction =     0.000309

     BFGS Geometry Optimization
     Energy error            =      0.0E+00 Ry
     Gradient error          =      4.0E-03 Ry/Bohr

     number of scf cycles    =   1
     number of bfgs steps    =   0

     energy             new  =    -473.8273733527 Ry

     new trust radius        =       0.0039568066 bohr
     new conv_thr            =       0.0000001000 Ry


ATOMIC_POSITIONS (angstrom)
Al            1.4318910000        0.8267030000        0.0000000000    0   0   0
Al            4.2956740000        0.8267030000        0.0000000000    0   0   0
Al            2.8637820000        3.3068110000        0.0000000000    0   0   0
Al            5.7275650000        3.3068110000        0.0000000000    0   0   0
Al            0.0000000000        1.6534058356        2.3382725434
Al            2.8637820000        1.6534060000        2.3382725192
Al            1.4318911424        4.1335140822        2.3382725434
Al            4.2956738576        4.1335140822        2.3382725434
Al           -0.0000000000       -0.0000000000        4.6744431481
Al            2.8637820000       -0.0000006048        4.6744437660
Al            1.4318904762        2.4801083024        4.6744437660
Al            4.2956745238        2.4801083024        4.6744437660



     Writing config-only to output data dir ./output/pwscf.save/
     NEW-OLD atomic charge density approx. for the potential

     negative rho (up, down):  6.473E-07 0.000E+00

     total cpu time spent up to now is       13.1 secs

     Self-consistent Calculation

     iteration #  1     ecut=    40.00 Ry     beta= 0.70
     Davidson diagonalization with overlap
     ethr =  1.00E-06,  avg # of iterations =  2.0

     Threshold (ethr) on eigenvalues was too large:
     Diagonalizing with lowered threshold

     Davidson diagonalization with overlap
     ethr =  6.49E-09,  avg # of iterations =  6.0

     negative rho (up, down):  5.610E-07 0.000E+00

     total cpu time spent up to now is       14.5 secs

     total energy              =    -473.82742641 Ry
     estimated scf accuracy    <       0.00001025 Ry

     iteration #  2     ecut=    40.00 Ry     beta= 0.70
     Davidson diagonalization with overlap
     ethr =  2.85E-08,  avg # of iterations =  6.7

     negative rho (up, down):  5.588E-07 0.000E+00

     total cpu time spent up to now is       15.2 secs

     total energy              =    -473.82738482 Ry
     estimated scf accuracy    <       0.00080342 Ry

     iteration #  3     ecut=    40.00 Ry     beta= 0.70
     Davidson diagonalization with overlap
     ethr =  2.85E-08,  avg # of iterations =  6.9

     negative rho (up, down):  5.532E-07 0.000E+00

     total cpu time spent up to now is       16.1 secs

     total energy              =    -473.82743194 Ry
     estimated scf accuracy    <       0.00001466 Ry

     iteration #  4     ecut=    40.00 Ry     beta= 0.70
     Davidson diagonalization with overlap
     ethr =  2.85E-08,  avg # of iterations =  2.0

     negative rho (up, down):  5.442E-07 0.000E+00

     total cpu time spent up to now is       16.7 secs

     total energy              =    -473.82743380 Ry
     estimated scf accuracy    <       0.00000057 Ry

     iteration #  5     ecut=    40.00 Ry     beta= 0.70
     Davidson diagonalization with overlap
     ethr =  1.59E-09,  avg # of iterations =  4.5

     negative rho (up, down):  5.304E-07 0.000E+00

     total cpu time spent up to now is       17.4 secs

     End of self-consistent calculation

          k = 0.0000 0.0000 0.0000 ( 11947 PWs)   bands (ev):

    -8.6894  -7.0382  -4.4217  -2.8311  -2.8311  -2.8311  -2.8059  -2.8059
    -2.8059  -1.4688  -1.4688  -1.4688  -1.3002  -0.9425  -0.9425  -0.9425
     1.3304   1.3304   1.3304   1.5624   1.5624   1.5624

          k = 0.0000 0.1443 0.0000 ( 11985 PWs)   bands (ev):

    -8.5956  -6.9451  -4.3289  -4.1687  -3.4459  -3.4459  -2.5668  -2.0210
    -2.0210  -1.8736  -1.8736  -1.3389  -1.2117  -0.3852  -0.3852  -0.0442
     0.5297   0.8568   0.8568   2.2206   2.2206   2.2633

          k = 0.0000 0.2887 0.0000 ( 12015 PWs)   bands (ev):

    -8.3147  -6.6663  -5.3531  -4.0511  -3.8967  -3.8967  -3.7311  -2.2987
    -2.2987  -1.1815  -1.0744  -1.0744  -0.9467   0.2149   0.2150   0.4382
     0.7904   0.7904   1.8623   2.1051   2.5265   3.0203

          k = 0.0000 0.4330 0.0000 ( 12025 PWs)   bands (ev):

    -7.8477  -6.3640  -6.2028  -4.7314  -4.1682  -4.1682  -3.5900  -2.5618
    -2.5618  -2.1358  -0.5056  -0.2348  -0.2348   0.3632   0.3632   0.8792
     1.7745   1.7745   2.2828   2.7529   2.7529   2.9540

          k = 0.0000-0.5774 0.0000 ( 12036 PWs)   bands (ev):

    -7.1966  -7.1966  -5.5569  -5.5569  -4.2588  -4.2588  -2.9492  -2.9492
    -2.6503  -2.6503  -0.1605  -0.1605   0.1089   0.1089   1.3561   1.3561
     1.6052   1.6052   2.7329   2.7329   3.0706   3.0706

          k = 0.1250 0.2165 0.0000 ( 12005 PWs)   bands (ev):

    -8.4083  -6.7591  -4.7139  -4.7138  -4.1436  -3.1004  -3.1004  -2.5644
    -2.5346  -1.2088  -1.0350  -0.7511  -0.7511  -0.6721  -0.1600  -0.1600
     1.2729   1.2729   1.5821   1.7910   2.4392   2.5154

          k = 0.1250 0.3608 0.0000 ( 12006 PWs)   bands (ev):

    -8.0343  -6.3880  -5.8116  -5.0787  -4.1844  -3.7741  -3.4595  -2.9057
    -1.6037  -1.4877  -1.3449  -0.9177  -0.6819   0.1411   0.7008   1.2014
     1.3260   1.6435   2.1153   2.3627   2.4125   2.7859

          k = 0.1250-0.6495 0.0000 ( 12036 PWs)   bands (ev):

    -7.4753  -6.7334  -5.8333  -5.2615  -5.0976  -3.6399  -3.2231  -3.0845
    -2.4953  -1.5020  -1.0733  -0.2854  -0.1538   0.5439   0.8156   1.2575
     1.6112   1.7028   2.1620   2.9268   3.1990   3.3087

          k = 0.2500-0.7217 0.0000 ( 12043 PWs)   bands (ev):

    -7.5683  -6.0875  -6.0875  -5.9256  -4.4575  -4.4575  -3.3146  -1.8664
    -1.8664  -1.7664  -1.7272  -0.4415  -0.2415   0.1281   0.9879   1.1388
     1.1388   2.1007   2.5433   2.5433   2.8327   3.1227

          k = 0.2500-0.5774 0.0000 ( 12031 PWs)   bands (ev):

    -6.9185  -6.9185  -6.1796  -5.2811  -5.2811  -4.5486  -2.6762  -2.6762
    -1.9548  -1.8345  -0.4450  -0.4208  -0.3295   0.3718   0.3718   1.0223
     1.0629   1.3312   2.6613   3.6532   3.6831   3.7904

     the Fermi energy is     1.7488 ev

!    total energy              =    -473.82743394 Ry
     total all-electron energy =     -5827.540813 Ry
     estimated scf accuracy    <       0.00000006 Ry
     smearing contrib. (-TS)   =      -0.00035745 Ry
     internal energy E=F+TS    =    -473.82707649 Ry

     The total energy is F=E-TS. E is the sum of the following terms:
     one-electron contribution =    -170.24427893 Ry
     hartree contribution      =      96.09499100 Ry
     xc contribution           =     -30.41265761 Ry
     ewald contribution        =      46.87612517 Ry
     one-center paw contrib.   =    -416.14125612 Ry

     convergence has been achieved in   5 iterations

     negative rho (up, down):  5.304E-07 0.000E+00

     Forces acting on atoms (cartesian axes, Ry/au):

     atom    1 type  1   force =    -0.00000063   -0.00000036    0.00392543
     atom    2 type  1   force =     0.00000063   -0.00000036    0.00392543
     atom    3 type  1   force =    -0.00000000    0.00000073    0.00392543
     atom    4 type  1   force =    -0.00000000    0.00000000    0.00392542
     atom    5 type  1   force =     0.00000000    0.00000023   -0.00021545
     atom    6 type  1   force =     0.00000000    0.00000000   -0.00021606
     atom    7 type  1   force =    -0.00000020   -0.00000012   -0.00021545
     atom    8 type  1   force =     0.00000020   -0.00000012   -0.00021545
     atom    9 type  1   force =     0.00000000    0.00000000   -0.00370914
     atom   10 type  1   force =     0.00000000    0.00000034   -0.00371006
     atom   11 type  1   force =     0.00000029   -0.00000017   -0.00371006
     atom   12 type  1   force =    -0.00000029   -0.00000017   -0.00371006

     Total force =     0.007432     Total SCF correction =     0.000299
     Energy error            =      6.1E-05 Ry
     Gradient error          =      3.7E-03 Ry/Bohr

     number of scf cycles    =   2
     number of bfgs steps    =   1

     energy             old  =    -473.8273733527 Ry
     energy             new  =    -473.8274339383 Ry

     CASE: energy            _new < energy            _old


     WARNING: bfgs curvature condition failed, Theta= 0.853
     new trust radius        =       0.0043524872 bohr
     new conv_thr            =       0.0000000010 Ry


ATOMIC_POSITIONS (angstrom)
Al            1.4318910000        0.8267030000        0.0000000000    0   0   0
Al            4.2956740000        0.8267030000        0.0000000000    0   0   0
Al            2.8637820000        3.3068110000        0.0000000000    0   0   0
Al            5.7275650000        3.3068110000        0.0000000000    0   0   0
Al           -0.0000000000        1.6534058630        2.3381881127
Al            2.8637820000        1.6534060000        2.3381878350
Al            1.4318911186        4.1335140685        2.3381881127
Al            4.2956738814        4.1335140685        2.3381881127
Al            0.0000000000       -0.0000000000        4.6721400304
Al            2.8637820000       -0.0000007095        4.6721405289
Al            1.4318903856        2.4801083547        4.6721405289
Al            4.2956746144        2.4801083547        4.6721405289



     Writing config-only to output data dir ./output/pwscf.save/
     NEW-OLD atomic charge density approx. for the potential

     negative rho (up, down):  6.612E-07 0.000E+00

     total cpu time spent up to now is       18.1 secs

     Self-consistent Calculation

     iteration #  1     ecut=    40.00 Ry     beta= 0.70
     Davidson diagonalization with overlap
     ethr =  1.00E-06,  avg # of iterations =  2.0

     Threshold (ethr) on eigenvalues was too large:
     Diagonalizing with lowered threshold

     Davidson diagonalization with overlap
     ethr =  1.23E-08,  avg # of iterations =  4.7

     negative rho (up, down):  5.604E-07 0.000E+00

     total cpu time spent up to now is       19.4 secs

     total energy              =    -473.82749491 Ry
     estimated scf accuracy    <       0.00000242 Ry

     iteration #  2     ecut=    40.00 Ry     beta= 0.70
     Davidson diagonalization with overlap
     ethr =  6.72E-09,  avg # of iterations =  7.2

     negative rho (up, down):  5.589E-07 0.000E+00

     total cpu time spent up to now is       20.2 secs

     total energy              =    -473.82748676 Ry
     estimated scf accuracy    <       0.00016069 Ry

     iteration #  3     ecut=    40.00 Ry     beta= 0.70
     Davidson diagonalization with overlap
     ethr =  6.72E-09,  avg # of iterations =  6.5

     negative rho (up, down):  5.468E-07 0.000E+00

     total cpu time spent up to now is       21.0 secs

     total energy              =    -473.82749630 Ry
     estimated scf accuracy    <       0.00000074 Ry

     iteration #  4     ecut=    40.00 Ry     beta= 0.70
     Davidson diagonalization with overlap
     ethr =  2.07E-09,  avg # of iterations =  2.7

     negative rho (up, down):  5.370E-07 0.000E+00

     total cpu time spent up to now is       21.7 secs

     total energy              =    -473.82749645 Ry
     estimated scf accuracy    <       0.00000011 Ry

     iteration #  5     ecut=    40.00 Ry     beta= 0.70
     Davidson diagonalization with overlap
     ethr =  3.06E-10,  avg # of iterations =  4.2

     negative rho (up, down):  5.294E-07 0.000E+00

     total cpu time spent up to now is       22.4 secs

     total energy              =    -473.82749646 Ry
     estimated scf accuracy    <       0.00000020 Ry

     iteration #  6     ecut=    40.00 Ry     beta= 0.70
     Davidson diagonalization with overlap
     ethr =  3.06E-10,  avg # of iterations =  2.0

     negative rho (up, down):  5.280E-07 0.000E+00

     total cpu time spent up to now is       23.1 secs

     total energy              =    -473.82749649 Ry
     estimated scf accuracy    <          4.1E-09 Ry

     iteration #  7     ecut=    40.00 Ry     beta= 0.70
     Davidson diagonalization with overlap
     ethr =  1.14E-11,  avg # of iterations =  5.3

     negative rho (up, down):  5.275E-07 0.000E+00

     total cpu time spent up to now is       23.9 secs

     total energy              =    -473.82749649 Ry
     estimated scf accuracy    <          3.9E-09 Ry

     iteration #  8     ecut=    40.00 Ry     beta= 0.70
     Davidson diagonalization with overlap
     ethr =  1.08E-11,  avg # of iterations =  1.9

     negative rho (up, down):  5.275E-07 0.000E+00

     total cpu time spent up to now is       24.5 secs

     End of self-consistent calculation

          k = 0.0000 0.0000 0.0000 ( 11947 PWs)   bands (ev):

    -8.6930  -7.0400  -4.4206  -2.8348  -2.8348  -2.8348  -2.8096  -2.8096
    -2.8096  -1.4710  -1.4710  -1.4710  -1.2997  -0.9441  -0.9441  -0.9441
     1.3314   1.3314   1.3314   1.5636   1.5636   1.5636

          k = 0.0000 0.1443 0.0000 ( 11985 PWs)   bands (ev):

    -8.5992  -6.9469  -4.3277  -4.1723  -3.4496  -3.4496  -2.5687  -2.0247
    -2.0247  -1.8756  -1.8756  -1.3425  -1.2113  -0.3869  -0.3869  -0.0441
     0.5287   0.8578   0.8578   2.2216   2.2216   2.2661

          k = 0.0000 0.2887 0.0000 ( 12015 PWs)   bands (ev):

    -8.3183  -6.6681  -5.3568  -4.0499  -3.9004  -3.9004  -3.7329  -2.3006
    -2.3006  -1.1806  -1.0780  -1.0780  -0.9462   0.2150   0.2150   0.4348
     0.7894   0.7894   1.8620   2.1038   2.5292   3.0205

          k = 0.0000 0.4330 0.0000 ( 12025 PWs)   bands (ev):

    -7.8514  -6.3676  -6.2047  -4.7333  -4.1718  -4.1718  -3.5888  -2.5638
    -2.5638  -2.1347  -0.5052  -0.2359  -0.2359   0.3615   0.3615   0.8794
     1.7726   1.7726   2.2793   2.7506   2.7506   2.9567

          k = 0.0000-0.5774 0.0000 ( 12036 PWs)   bands (ev):

    -7.2003  -7.2003  -5.5587  -5.5587  -4.2625  -4.2625  -2.9481  -2.9480
    -2.6522  -2.6522  -0.1599  -0.1599   0.1093   0.1093   1.3525   1.3525
     1.6019   1.6020   2.7310   2.7310   3.0705   3.0705

          k = 0.1250 0.2165 0.0000 ( 12005 PWs)   bands (ev):

    -8.4119  -6.7610  -4.7175  -4.7175  -4.1424  -3.1023  -3.1023  -2.5681
    -2.5383  -1.2110  -1.0345  -0.7522  -0.7522  -0.6737  -0.1616  -0.1616
     1.2711   1.2711   1.5831   1.7920   2.4419   2.5157

          k = 0.1250 0.3608 0.0000 ( 12006 PWs)   bands (ev):

    -8.0379  -6.3898  -5.8153  -5.0823  -4.1863  -3.7729  -3.4614  -2.9094
    -1.6026  -1.4914  -1.3469  -0.9169  -0.6815   0.1393   0.6974   1.1995
     1.3267   1.6420   2.1149   2.3614   2.4113   2.7886

          k = 0.1250-0.6495 0.0000 ( 12036 PWs)   bands (ev):

    -7.4789  -6.7370  -5.8351  -5.2651  -5.0994  -3.6418  -3.2219  -3.0882
    -2.4942  -1.5039  -1.0724  -0.2890  -0.1534   0.5442   0.8142   1.2552
     1.6100   1.7009   2.1604   2.9254   3.1962   3.3052

          k = 0.2500-0.7217 0.0000 ( 12043 PWs)   bands (ev):

    -7.5719  -6.0911  -6.0911  -5.9274  -4.4593  -4.4593  -3.3134  -1.8653
    -1.8653  -1.7702  -1.7309  -0.4438  -0.2411   0.1265   0.9844   1.1390
     1.1390   2.1006   2.5398   2.5398   2.8338   3.1219

          k = 0.2500-0.5774 0.0000 ( 12031 PWs)   bands (ev):

    -6.9221  -6.9221  -6.1832  -5.2829  -5.2829  -4.5505  -2.6750  -2.6750
    -1.9537  -1.8382  -0.4488  -0.4244  -0.3316   0.3721   0.3721   1.0203
     1.0632   1.3298   2.6622   3.6507   3.6842   3.7913

     the Fermi energy is     1.7473 ev

!    total energy              =    -473.82749649 Ry
     total all-electron energy =     -5827.540875 Ry
     estimated scf accuracy    <          2.7E-10 Ry
     smearing contrib. (-TS)   =      -0.00035165 Ry
     internal energy E=F+TS    =    -473.82714484 Ry

     The total energy is F=E-TS. E is the sum of the following terms:
     one-electron contribution =    -170.39684046 Ry
     hartree contribution      =      96.16929076 Ry
     xc contribution           =     -30.41463270 Ry
     ewald contribution        =      46.95663043 Ry
     one-center paw contrib.   =    -416.14159287 Ry

     convergence has been achieved in   8 iterations

     negative rho (up, down):  5.275E-07 0.000E+00

     Forces acting on atoms (cartesian axes, Ry/au):

     atom    1 type  1   force =     0.00000003    0.00000002    0.00387317
     atom    2 type  1   force =    -0.00000003    0.00000002    0.00387317
     atom    3 type  1   force =    -0.00000000   -0.00000004    0.00387317
     atom    4 type  1   force =    -0.00000000    0.00000000    0.00387313
     atom    5 type  1   force =     0.00000000   -0.00000005   -0.00042797
     atom    6 type  1   force =    -0.00000000    0.00000000   -0.00042788
     atom    7 type  1   force =     0.00000004    0.00000002   -0.00042797
     atom    8 type  1   force =    -0.00000004    0.00000002   -0.00042797
     atom    9 type  1   force =     0.00000000    0.00000000   -0.00344521
     atom   10 type  1   force =     0.00000000    0.00000033   -0.00344521
     atom   11 type  1   force =     0.00000028   -0.00000016   -0.00344521
     atom   12 type  1   force =    -0.00000028   -0.00000016   -0.00344521

     Total force =     0.006943     Total SCF correction =     0.000021
     Energy error            =      6.3E-05 Ry
     Gradient error          =      3.4E-03 Ry/Bohr

     number of scf cycles    =   3
     number of bfgs steps    =   2

     energy             old  =    -473.8274339383 Ry
     energy             new  =    -473.8274964907 Ry

     CASE: energy            _new < energy            _old

     new trust radius        =       0.0065287308 bohr
     new conv_thr            =       0.0000000010 Ry


ATOMIC_POSITIONS (angstrom)
Al            1.4318910000        0.8267030000        0.0000000000    0   0   0
Al            4.2956740000        0.8267030000        0.0000000000    0   0   0
Al            2.8637820000        3.3068110000        0.0000000000    0   0   0
Al            5.7275650000        3.3068110000        0.0000000000    0   0   0
Al           -0.0000000000        1.6534056757        2.3378810330
Al            2.8637820000        1.6534060000        2.3378809290
Al            1.4318912808        4.1335141621        2.3378810330
Al            4.2956737192        4.1335141621        2.3378810330
Al           -0.0000000000       -0.0000000000        4.6686851748
Al            2.8637820000       -0.0000008875        4.6686862368
Al            1.4318902314        2.4801084437        4.6686862368
Al            4.2956747686        2.4801084437        4.6686862368



     Writing config-only to output data dir ./output/pwscf.save/
     NEW-OLD atomic charge density approx. for the potential

     negative rho (up, down):  7.806E-07 0.000E+00

     total cpu time spent up to now is       25.2 secs

     Self-consistent Calculation

     iteration #  1     ecut=    40.00 Ry     beta= 0.70
     Davidson diagonalization with overlap
     ethr =  1.00E-06,  avg # of iterations =  2.0

     Threshold (ethr) on eigenvalues was too large:
     Diagonalizing with lowered threshold

     Davidson diagonalization with overlap
     ethr =  8.04E-09,  avg # of iterations =  7.1

     negative rho (up, down):  5.769E-07 0.000E+00

     total cpu time spent up to now is       26.6 secs

     total energy              =    -473.82757858 Ry
     estimated scf accuracy    <       0.00000748 Ry

     iteration #  2     ecut=    40.00 Ry     beta= 0.70
     Davidson diagonalization with overlap
     ethr =  2.08E-08,  avg # of iterations =  4.0

     negative rho (up, down):  5.674E-07 0.000E+00

     total cpu time spent up to now is       27.3 secs

     total energy              =    -473.82757274 Ry
     estimated scf accuracy    <       0.00007535 Ry

     iteration #  3     ecut=    40.00 Ry     beta= 0.70
     Davidson diagonalization with overlap
     ethr =  2.08E-08,  avg # of iterations =  4.9

     negative rho (up, down):  5.617E-07 0.000E+00

     total cpu time spent up to now is       28.1 secs

     total energy              =    -473.82757957 Ry
     estimated scf accuracy    <       0.00003452 Ry

     iteration #  4     ecut=    40.00 Ry     beta= 0.70
     Davidson diagonalization with overlap
     ethr =  2.08E-08,  avg # of iterations =  3.7

     negative rho (up, down):  5.481E-07 0.000E+00

     total cpu time spent up to now is       28.8 secs

     total energy              =    -473.82758235 Ry
     estimated scf accuracy    <       0.00000472 Ry

     iteration #  5     ecut=    40.00 Ry     beta= 0.70
     Davidson diagonalization with overlap
     ethr =  1.31E-08,  avg # of iterations =  1.4

     negative rho (up, down):  5.239E-07 0.000E+00

     total cpu time spent up to now is       29.4 secs

     total energy              =    -473.82758277 Ry
     estimated scf accuracy    <       0.00000015 Ry

     iteration #  6     ecut=    40.00 Ry     beta= 0.70
     Davidson diagonalization with overlap
     ethr =  4.31E-10,  avg # of iterations =  5.4

     negative rho (up, down):  5.230E-07 0.000E+00

     total cpu time spent up to now is       30.2 secs

     total energy              =    -473.82758287 Ry
     estimated scf accuracy    <       0.00000015 Ry

     iteration #  7     ecut=    40.00 Ry     beta= 0.70
     Davidson diagonalization with overlap
     ethr =  4.30E-10,  avg # of iterations =  1.1

     negative rho (up, down):  5.221E-07 0.000E+00

     total cpu time spent up to now is       30.8 secs

     total energy              =    -473.82758286 Ry
     estimated scf accuracy    <       0.00000004 Ry

     iteration #  8     ecut=    40.00 Ry     beta= 0.70
     Davidson diagonalization with overlap
     ethr =  1.20E-10,  avg # of iterations =  4.1

     negative rho (up, down):  5.216E-07 0.000E+00

     total cpu time spent up to now is       31.5 secs

     total energy              =    -473.82758287 Ry
     estimated scf accuracy    <       0.00000003 Ry

     iteration #  9     ecut=    40.00 Ry     beta= 0.70
     Davidson diagonalization with overlap
     ethr =  9.00E-11,  avg # of iterations =  1.5

     negative rho (up, down):  5.216E-07 0.000E+00

     total cpu time spent up to now is       32.1 secs

     total energy              =    -473.82758288 Ry
     estimated scf accuracy    <          1.2E-09 Ry

     iteration # 10     ecut=    40.00 Ry     beta= 0.70
     Davidson diagonalization with overlap
     ethr =  3.23E-12,  avg # of iterations =  5.8

     negative rho (up, down):  5.217E-07 0.000E+00

     total cpu time spent up to now is       32.9 secs

     End of self-consistent calculation

          k = 0.0000 0.0000 0.0000 ( 11947 PWs)   bands (ev):

    -8.6987  -7.0428  -4.4188  -2.8406  -2.8406  -2.8406  -2.8154  -2.8154
    -2.8154  -1.4744  -1.4744  -1.4744  -1.2990  -0.9466  -0.9466  -0.9466
     1.3330   1.3330   1.3330   1.5653   1.5653   1.5653

          k = 0.0000 0.1443 0.0000 ( 11985 PWs)   bands (ev):

    -8.6049  -6.9497  -4.3260  -4.1781  -3.4554  -3.4554  -2.5717  -2.0305
    -2.0305  -1.8787  -1.8787  -1.3482  -1.2106  -0.3896  -0.3896  -0.0442
     0.5273   0.8593   0.8593   2.2232   2.2232   2.2703

          k = 0.0000 0.2887 0.0000 ( 12015 PWs)   bands (ev):

    -8.3240  -6.6709  -5.3625  -4.0481  -3.9062  -3.9062  -3.7359  -2.3037
    -2.3037  -1.1793  -1.0836  -1.0836  -0.9456   0.2149   0.2149   0.4295
     0.7879   0.7879   1.8615   2.1017   2.5334   3.0209

          k = 0.0000 0.4330 0.0000 ( 12025 PWs)   bands (ev):

    -7.8571  -6.3733  -6.2075  -4.7361  -4.1776  -4.1776  -3.5871  -2.5667
    -2.5667  -2.1331  -0.5046  -0.2377  -0.2377   0.3588   0.3588   0.8798
     1.7697   1.7697   2.2738   2.7470   2.7470   2.9607

          k = 0.0000-0.5774 0.0000 ( 12036 PWs)   bands (ev):

    -7.2060  -7.2060  -5.5616  -5.5616  -4.2683  -4.2683  -2.9464  -2.9464
    -2.6552  -2.6552  -0.1590  -0.1590   0.1099   0.1099   1.3467   1.3467
     1.5969   1.5969   2.7280   2.7280   3.0704   3.0704

          k = 0.1250 0.2165 0.0000 ( 12005 PWs)   bands (ev):

    -8.4176  -6.7638  -4.7233  -4.7233  -4.1407  -3.1053  -3.1053  -2.5740
    -2.5440  -1.2144  -1.0339  -0.7540  -0.7540  -0.6763  -0.1641  -0.1641
     1.2683   1.2683   1.5846   1.7935   2.4461   2.5160

          k = 0.1250 0.3608 0.0000 ( 12006 PWs)   bands (ev):

    -8.0437  -6.3926  -5.8210  -5.0881  -4.1892  -3.7712  -3.4644  -2.9152
    -1.6011  -1.4972  -1.3501  -0.9157  -0.6808   0.1366   0.6920   1.1966
     1.3276   1.6398   2.1143   2.3594   2.4093   2.7927

          k = 0.1250-0.6495 0.0000 ( 12036 PWs)   bands (ev):

    -7.4847  -6.7428  -5.8380  -5.2709  -5.1023  -3.6447  -3.2202  -3.0940
    -2.4926  -1.5070  -1.0709  -0.2947  -0.1528   0.5447   0.8120   1.2516
     1.6081   1.6979   2.1579   2.9231   3.1916   3.2997

          k = 0.2500-0.7217 0.0000 ( 12043 PWs)   bands (ev):

    -7.5777  -6.0969  -6.0969  -5.9302  -4.4622  -4.4622  -3.3117  -1.8637
    -1.8637  -1.7760  -1.7367  -0.4473  -0.2405   0.1240   0.9789   1.1393
     1.1393   2.1005   2.5343   2.5343   2.8354   3.1208

          k = 0.2500-0.5774 0.0000 ( 12031 PWs)   bands (ev):

    -6.9279  -6.9279  -6.1890  -5.2858  -5.2858  -4.5534  -2.6734  -2.6734
    -1.9521  -1.8440  -0.4547  -0.4302  -0.3349   0.3727   0.3727   1.0173
     1.0636   1.3277   2.6635   3.6466   3.6860   3.7927

     the Fermi energy is     1.7450 ev

!    total energy              =    -473.82758288 Ry
     total all-electron energy =     -5827.540962 Ry
     estimated scf accuracy    <          6.5E-10 Ry
     smearing contrib. (-TS)   =      -0.00034279 Ry
     internal energy E=F+TS    =    -473.82724009 Ry

     The total energy is F=E-TS. E is the sum of the following terms:
     one-electron contribution =    -170.62899966 Ry
     hartree contribution      =      96.28408841 Ry
     xc contribution           =     -30.41766561 Ry
     ewald contribution        =      47.07745192 Ry
     one-center paw contrib.   =    -416.14211515 Ry

     convergence has been achieved in  10 iterations

     negative rho (up, down):  5.217E-07 0.000E+00

     Forces acting on atoms (cartesian axes, Ry/au):

     atom    1 type  1   force =     0.00000003    0.00000002    0.00378221
     atom    2 type  1   force =    -0.00000003    0.00000002    0.00378221
     atom    3 type  1   force =     0.00000000   -0.00000003    0.00378221
     atom    4 type  1   force =     0.00000000    0.00000000    0.00378221
     atom    5 type  1   force =     0.00000000    0.00000009   -0.00071820
     atom    6 type  1   force =    -0.00000000    0.00000000   -0.00071800
     atom    7 type  1   force =    -0.00000008   -0.00000005   -0.00071820
     atom    8 type  1   force =     0.00000008   -0.00000005   -0.00071820
     atom    9 type  1   force =     0.00000000   -0.00000000   -0.00306395
     atom   10 type  1   force =     0.00000000    0.00000033   -0.00306410
     atom   11 type  1   force =     0.00000028   -0.00000016   -0.00306410
     atom   12 type  1   force =    -0.00000028   -0.00000016   -0.00306410

     Total force =     0.006294     Total SCF correction =     0.000035
     Energy error            =      8.6E-05 Ry
     Gradient error          =      3.1E-03 Ry/Bohr

     number of scf cycles    =   4
     number of bfgs steps    =   3

     energy             old  =    -473.8274964907 Ry
     energy             new  =    -473.8275828765 Ry

     CASE: energy            _new < energy            _old

     new trust radius        =       0.0097930963 bohr
     new conv_thr            =       0.0000000010 Ry


ATOMIC_POSITIONS (angstrom)
Al            1.4318910000        0.8267030000        0.0000000000    0   0   0
Al            4.2956740000        0.8267030000        0.0000000000    0   0   0
Al            2.8637820000        3.3068110000        0.0000000000    0   0   0
Al            5.7275650000        3.3068110000        0.0000000000    0   0   0
Al           -0.0000000000        1.6534055042        2.3371555028
Al            2.8637820000        1.6534060000        2.3371557430
Al            1.4318914294        4.1335142479        2.3371555028
Al            4.2956735706        4.1335142479        2.3371555028
Al           -0.0000000000       -0.0000000000        4.6635028915
Al            2.8637820000       -0.0000011777        4.6635046955
Al            1.4318899801        2.4801085888        4.6635046955
Al            4.2956750199        2.4801085888        4.6635046955



     Writing config-only to output data dir ./output/pwscf.save/
     NEW-OLD atomic charge density approx. for the potential

     negative rho (up, down):  1.025E-06 0.000E+00

     total cpu time spent up to now is       33.5 secs

     Self-consistent Calculation

     iteration #  1     ecut=    40.00 Ry     beta= 0.70
     Davidson diagonalization with overlap
     ethr =  1.00E-06,  avg # of iterations =  3.0

     Threshold (ethr) on eigenvalues was too large:
     Diagonalizing with lowered threshold

     Davidson diagonalization with overlap
     ethr =  1.16E-08,  avg # of iterations =  6.5

     negative rho (up, down):  6.006E-07 0.000E+00

     total cpu time spent up to now is       34.9 secs

     total energy              =    -473.82768780 Ry
     estimated scf accuracy    <       0.00001575 Ry

     iteration #  2     ecut=    40.00 Ry     beta= 0.70
     Davidson diagonalization with overlap
     ethr =  4.38E-08,  avg # of iterations =  3.9

     negative rho (up, down):  5.841E-07 0.000E+00

     total cpu time spent up to now is       35.7 secs

     total energy              =    -473.82767622 Ry
     estimated scf accuracy    <       0.00015676 Ry

     iteration #  3     ecut=    40.00 Ry     beta= 0.70
     Davidson diagonalization with overlap
     ethr =  4.38E-08,  avg # of iterations =  4.9

     negative rho (up, down):  5.751E-07 0.000E+00

     total cpu time spent up to now is       36.4 secs

     total energy              =    -473.82769157 Ry
     estimated scf accuracy    <       0.00005036 Ry

     iteration #  4     ecut=    40.00 Ry     beta= 0.70
     Davidson diagonalization with overlap
     ethr =  4.38E-08,  avg # of iterations =  2.9

     negative rho (up, down):  5.522E-07 0.000E+00

     total cpu time spent up to now is       37.0 secs

     total energy              =    -473.82769587 Ry
     estimated scf accuracy    <       0.00000962 Ry

     iteration #  5     ecut=    40.00 Ry     beta= 0.70
     Davidson diagonalization with overlap
     ethr =  2.67E-08,  avg # of iterations =  1.7

     negative rho (up, down):  5.170E-07 0.000E+00

     total cpu time spent up to now is       37.7 secs

     total energy              =    -473.82769672 Ry
     estimated scf accuracy    <       0.00000019 Ry

     iteration #  6     ecut=    40.00 Ry     beta= 0.70
     Davidson diagonalization with overlap
     ethr =  5.37E-10,  avg # of iterations =  6.2

     negative rho (up, down):  5.134E-07 0.000E+00

     total cpu time spent up to now is       38.5 secs

     total energy              =    -473.82769688 Ry
     estimated scf accuracy    <       0.00000020 Ry

     iteration #  7     ecut=    40.00 Ry     beta= 0.70
     Davidson diagonalization with overlap
     ethr =  5.37E-10,  avg # of iterations =  1.6

     negative rho (up, down):  5.122E-07 0.000E+00

     total cpu time spent up to now is       39.2 secs

     total energy              =    -473.82769689 Ry
     estimated scf accuracy    <          8.0E-09 Ry

     iteration #  8     ecut=    40.00 Ry     beta= 0.70
     Davidson diagonalization with overlap
     ethr =  2.23E-11,  avg # of iterations =  6.3

     negative rho (up, down):  5.119E-07 0.000E+00

     total cpu time spent up to now is       40.0 secs

     total energy              =    -473.82769690 Ry
     estimated scf accuracy    <       0.00000002 Ry

     iteration #  9     ecut=    40.00 Ry     beta= 0.70
     Davidson diagonalization with overlap
     ethr =  2.23E-11,  avg # of iterations =  2.5

     negative rho (up, down):  5.120E-07 0.000E+00

     total cpu time spent up to now is       40.6 secs

     End of self-consistent calculation

          k = 0.0000 0.0000 0.0000 ( 11947 PWs)   bands (ev):

    -8.7073  -7.0470  -4.4162  -2.8495  -2.8495  -2.8495  -2.8241  -2.8241
    -2.8241  -1.4795  -1.4795  -1.4795  -1.2980  -0.9505  -0.9505  -0.9505
     1.3353   1.3353   1.3353   1.5679   1.5679   1.5679

          k = 0.0000 0.1443 0.0000 ( 11985 PWs)   bands (ev):

    -8.6136  -6.9540  -4.3234  -4.1869  -3.4641  -3.4641  -2.5763  -2.0393
    -2.0393  -1.8833  -1.8833  -1.3567  -1.2096  -0.3937  -0.3937  -0.0442
     0.5252   0.8615   0.8615   2.2255   2.2255   2.2766

          k = 0.0000 0.2887 0.0000 ( 12015 PWs)   bands (ev):

    -8.3326  -6.6751  -5.3712  -4.0455  -3.9149  -3.9149  -3.7403  -2.3082
    -2.3082  -1.1775  -1.0922  -1.0922  -0.9446   0.2148   0.2148   0.4213
     0.7857   0.7857   1.8606   2.0986   2.5396   3.0214

          k = 0.0000 0.4330 0.0000 ( 12025 PWs)   bands (ev):

    -7.8657  -6.3820  -6.2118  -4.7405  -4.1864  -4.1864  -3.5845  -2.5713
    -2.5713  -2.1307  -0.5037  -0.2405  -0.2405   0.3548   0.3548   0.8803
     1.7654   1.7654   2.2655   2.7414   2.7414   2.9667

          k = 0.0000-0.5774 0.0000 ( 12036 PWs)   bands (ev):

    -7.2147  -7.2147  -5.5659  -5.5659  -4.2770  -4.2770  -2.9438  -2.9438
    -2.6597  -2.6597  -0.1577  -0.1577   0.1107   0.1107   1.3380   1.3380
     1.5892   1.5892   2.7235   2.7235   3.0702   3.0702

          k = 0.1250 0.2165 0.0000 ( 12005 PWs)   bands (ev):

    -8.4262  -6.7680  -4.7320  -4.7320  -4.1380  -3.1098  -3.1098  -2.5828
    -2.5528  -1.2195  -1.0329  -0.7568  -0.7568  -0.6801  -0.1679  -0.1679
     1.2641   1.2641   1.5869   1.7956   2.4523   2.5166

          k = 0.1250 0.3608 0.0000 ( 12006 PWs)   bands (ev):

    -8.0523  -6.3969  -5.8297  -5.0968  -4.1936  -3.7686  -3.4688  -2.9240
    -1.5988  -1.5060  -1.3548  -0.9139  -0.6799   0.1325   0.6839   1.1919
     1.3291   1.6364   2.1133   2.3563   2.4061   2.7988

          k = 0.1250-0.6495 0.0000 ( 12036 PWs)   bands (ev):

    -7.4933  -6.7515  -5.8423  -5.2796  -5.1066  -3.6491  -3.2177  -3.1028
    -2.4901  -1.5117  -1.0687  -0.3032  -0.1519   0.5455   0.8085   1.2462
     1.6054   1.6933   2.1542   2.9197   3.1847   3.2914

          k = 0.2500-0.7217 0.0000 ( 12043 PWs)   bands (ev):

    -7.5863  -6.1056  -6.1056  -5.9346  -4.4666  -4.4666  -3.3092  -1.8613
    -1.8613  -1.7849  -1.7455  -0.4526  -0.2396   0.1202   0.9704   1.1398
     1.1398   2.1003   2.5260   2.5260   2.8378   3.1191

          k = 0.2500-0.5774 0.0000 ( 12031 PWs)   bands (ev):

    -6.9365  -6.9365  -6.1976  -5.2901  -5.2901  -4.5578  -2.6709  -2.6709
    -1.9497  -1.8529  -0.4636  -0.4390  -0.3400   0.3735   0.3735   1.0127
     1.0642   1.3245   2.6654   3.6404   3.6887   3.7947

     the Fermi energy is     1.7411 ev

!    total energy              =    -473.82769690 Ry
     total all-electron energy =     -5827.541076 Ry
     estimated scf accuracy    <          1.5E-10 Ry
     smearing contrib. (-TS)   =      -0.00033082 Ry
     internal energy E=F+TS    =    -473.82736608 Ry

     The total energy is F=E-TS. E is the sum of the following terms:
     one-electron contribution =    -170.97746915 Ry
     hartree contribution      =      96.45639436 Ry
     xc contribution           =     -30.42223285 Ry
     ewald contribution        =      47.25885163 Ry
     one-center paw contrib.   =    -416.14291007 Ry

     convergence has been achieved in   9 iterations

     negative rho (up, down):  5.120E-07 0.000E+00

     Forces acting on atoms (cartesian axes, Ry/au):

     atom    1 type  1   force =     0.00000014    0.00000008    0.00360897
     atom    2 type  1   force =    -0.00000014    0.00000008    0.00360897
     atom    3 type  1   force =    -0.00000000   -0.00000016    0.00360897
     atom    4 type  1   force =    -0.00000000    0.00000000    0.00360891
     atom    5 type  1   force =     0.00000000    0.00000008   -0.00110888
     atom    6 type  1   force =     0.00000000   -0.00000000   -0.00110875
     atom    7 type  1   force =    -0.00000007   -0.00000004   -0.00110888
     atom    8 type  1   force =     0.00000007   -0.00000004   -0.00110888
     atom    9 type  1   force =     0.00000000    0.00000000   -0.00249989
     atom   10 type  1   force =    -0.00000000    0.00000046   -0.00250018
     atom   11 type  1   force =     0.00000040   -0.00000023   -0.00250018
     atom   12 type  1   force =    -0.00000040   -0.00000023   -0.00250018

     Total force =     0.005470     Total SCF correction =     0.000010
     Energy error            =      1.1E-04 Ry
     Gradient error          =      2.5E-03 Ry/Bohr

     number of scf cycles    =   5
     number of bfgs steps    =   4

     energy             old  =    -473.8275828765 Ry
     energy             new  =    -473.8276968995 Ry

     CASE: energy            _new < energy            _old

     new trust radius        =       0.0146896444 bohr
     new conv_thr            =       0.0000000011 Ry


ATOMIC_POSITIONS (angstrom)
Al            1.4318910000        0.8267030000        0.0000000000    0   0   0
Al            4.2956740000        0.8267030000        0.0000000000    0   0   0
Al            2.8637820000        3.3068110000        0.0000000000    0   0   0
Al            5.7275650000        3.3068110000        0.0000000000    0   0   0
Al           -0.0000000000        1.6534052331        2.3356502018
Al            2.8637820000        1.6534060000        2.3356508900
Al            1.4318916641        4.1335143834        2.3356502018
Al            4.2956733359        4.1335143834        2.3356502018
Al           -0.0000000000       -0.0000000000        4.6557294664
Al            2.8637820000       -0.0000015247        4.6557322725
Al            1.4318896796        2.4801087623        4.6557322725
Al            4.2956753204        2.4801087623        4.6557322725



     Writing config-only to output data dir ./output/pwscf.save/
     NEW-OLD atomic charge density approx. for the potential

     negative rho (up, down):  1.604E-06 0.000E+00

     total cpu time spent up to now is       41.3 secs

     Self-consistent Calculation

     iteration #  1     ecut=    40.00 Ry     beta= 0.70
     Davidson diagonalization with overlap
     ethr =  1.00E-06,  avg # of iterations =  4.2

     Threshold (ethr) on eigenvalues was too large:
     Diagonalizing with lowered threshold

     Davidson diagonalization with overlap
     ethr =  2.19E-08,  avg # of iterations =  6.1

     negative rho (up, down):  6.556E-07 0.000E+00

     total cpu time spent up to now is       42.7 secs

     total energy              =    -473.82781508 Ry
     estimated scf accuracy    <       0.00003359 Ry

     iteration #  2     ecut=    40.00 Ry     beta= 0.70
     Davidson diagonalization with overlap
     ethr =  9.33E-08,  avg # of iterations =  3.8

     negative rho (up, down):  6.199E-07 0.000E+00

     total cpu time spent up to now is       43.4 secs

     total energy              =    -473.82778694 Ry
     estimated scf accuracy    <       0.00037814 Ry

     iteration #  3     ecut=    40.00 Ry     beta= 0.70
     Davidson diagonalization with overlap
     ethr =  9.33E-08,  avg # of iterations =  4.7

     negative rho (up, down):  6.024E-07 0.000E+00

     total cpu time spent up to now is       44.2 secs

     total energy              =    -473.82782160 Ry
     estimated scf accuracy    <       0.00014222 Ry

     iteration #  4     ecut=    40.00 Ry     beta= 0.70
     Davidson diagonalization with overlap
     ethr =  9.33E-08,  avg # of iterations =  3.3

     negative rho (up, down):  5.600E-07 0.000E+00

     total cpu time spent up to now is       44.8 secs

     total energy              =    -473.82783305 Ry
     estimated scf accuracy    <       0.00001256 Ry

     iteration #  5     ecut=    40.00 Ry     beta= 0.70
     Davidson diagonalization with overlap
     ethr =  3.49E-08,  avg # of iterations =  1.8

     negative rho (up, down):  5.013E-07 0.000E+00

     total cpu time spent up to now is       45.5 secs

     total energy              =    -473.82783450 Ry
     estimated scf accuracy    <       0.00000028 Ry

     iteration #  6     ecut=    40.00 Ry     beta= 0.70
     Davidson diagonalization with overlap
     ethr =  7.81E-10,  avg # of iterations =  6.1

     negative rho (up, down):  4.959E-07 0.000E+00

     total cpu time spent up to now is       46.3 secs

     total energy              =    -473.82783475 Ry
     estimated scf accuracy    <       0.00000026 Ry

     iteration #  7     ecut=    40.00 Ry     beta= 0.70
     Davidson diagonalization with overlap
     ethr =  7.12E-10,  avg # of iterations =  2.0

     negative rho (up, down):  4.944E-07 0.000E+00

     total cpu time spent up to now is       46.9 secs

     total energy              =    -473.82783479 Ry
     estimated scf accuracy    <       0.00000002 Ry

     iteration #  8     ecut=    40.00 Ry     beta= 0.70
     Davidson diagonalization with overlap
     ethr =  4.47E-11,  avg # of iterations =  5.4

     negative rho (up, down):  4.941E-07 0.000E+00

     total cpu time spent up to now is       47.6 secs

     total energy              =    -473.82783479 Ry
     estimated scf accuracy    <       0.00000001 Ry

     iteration #  9     ecut=    40.00 Ry     beta= 0.70
     Davidson diagonalization with overlap
     ethr =  2.86E-11,  avg # of iterations =  2.0

     negative rho (up, down):  4.942E-07 0.000E+00

     total cpu time spent up to now is       48.3 secs

     End of self-consistent calculation

          k = 0.0000 0.0000 0.0000 ( 11947 PWs)   bands (ev):

    -8.7204  -7.0536  -4.4122  -2.8629  -2.8629  -2.8629  -2.8373  -2.8373
    -2.8373  -1.4873  -1.4873  -1.4873  -1.2965  -0.9564  -0.9564  -0.9564
     1.3388   1.3388   1.3388   1.5717   1.5717   1.5717

          k = 0.0000 0.1443 0.0000 ( 11985 PWs)   bands (ev):

    -8.6266  -6.9605  -4.3194  -4.2002  -3.4774  -3.4774  -2.5833  -2.0527
    -2.0527  -1.8905  -1.8905  -1.3697  -1.2081  -0.4000  -0.4000  -0.0444
     0.5220   0.8649   0.8649   2.2290   2.2290   2.2860

          k = 0.0000 0.2887 0.0000 ( 12015 PWs)   bands (ev):

    -8.3457  -6.6817  -5.3844  -4.0416  -3.9282  -3.9282  -3.7471  -2.3153
    -2.3153  -1.1747  -1.1052  -1.1052  -0.9431   0.2145   0.2145   0.4090
     0.7824   0.7824   1.8593   2.0940   2.5489   3.0222

          k = 0.0000 0.4330 0.0000 ( 12025 PWs)   bands (ev):

    -7.8788  -6.3952  -6.2183  -4.7472  -4.1997  -4.1997  -3.5806  -2.5782
    -2.5782  -2.1271  -0.5023  -0.2450  -0.2450   0.3489   0.3489   0.8810
     1.7587   1.7587   2.2529   2.7329   2.7329   2.9756

          k = 0.0000-0.5774 0.0000 ( 12036 PWs)   bands (ev):

    -7.2278  -7.2278  -5.5725  -5.5725  -4.2903  -4.2903  -2.9400  -2.9400
    -2.6666  -2.6666  -0.1558  -0.1558   0.1120   0.1120   1.3248   1.3248
     1.5776   1.5776   2.7165   2.7165   3.0700   3.0700

          k = 0.1250 0.2165 0.0000 ( 12005 PWs)   bands (ev):

    -8.4393  -6.7746  -4.7453  -4.7453  -4.1341  -3.1167  -3.1167  -2.5963
    -2.5660  -1.2274  -1.0314  -0.7613  -0.7613  -0.6860  -0.1734  -0.1734
     1.2576   1.2576   1.5902   1.7988   2.4617   2.5174

          k = 0.1250 0.3608 0.0000 ( 12006 PWs)   bands (ev):

    -8.0654  -6.4035  -5.8429  -5.1100  -4.2004  -3.7647  -3.4757  -2.9374
    -1.5954  -1.5194  -1.3621  -0.9112  -0.6785   0.1261   0.6716   1.1848
     1.3312   1.6316   2.1118   2.3516   2.4012   2.8080

          k = 0.1250-0.6495 0.0000 ( 12036 PWs)   bands (ev):

    -7.5064  -6.7646  -5.8489  -5.2928  -5.1133  -3.6559  -3.2138  -3.1161
    -2.4864  -1.5188  -1.0655  -0.3162  -0.1505   0.5466   0.8030   1.2380
     1.6012   1.6861   2.1488   2.9144   3.1742   3.2789

          k = 0.2500-0.7217 0.0000 ( 12043 PWs)   bands (ev):

    -7.5994  -6.1187  -6.1187  -5.9412  -4.4733  -4.4733  -3.3053  -1.8577
    -1.8577  -1.7984  -1.7588  -0.4607  -0.2383   0.1142   0.9577   1.1405
     1.1405   2.0998   2.5134   2.5134   2.8414   3.1165

          k = 0.2500-0.5774 0.0000 ( 12031 PWs)   bands (ev):

    -6.9497  -6.9497  -6.2108  -5.2968  -5.2968  -4.5645  -2.6671  -2.6671
    -1.9461  -1.8663  -0.4771  -0.4523  -0.3476   0.3747   0.3747   1.0056
     1.0652   1.3195   2.6684   3.6310   3.6929   3.7972

     the Fermi energy is     1.7349 ev

!    total energy              =    -473.82783479 Ry
     total all-electron energy =     -5827.541214 Ry
     estimated scf accuracy    <          4.0E-10 Ry
     smearing contrib. (-TS)   =      -0.00031667 Ry
     internal energy E=F+TS    =    -473.82751812 Ry

     The total energy is F=E-TS. E is the sum of the following terms:
     one-electron contribution =    -171.50023793 Ry
     hartree contribution      =      96.71464658 Ry
     xc contribution           =     -30.42911161 Ry
     ewald contribution        =      47.53130877 Ry
     one-center paw contrib.   =    -416.14412393 Ry

     convergence has been achieved in   9 iterations

     negative rho (up, down):  4.942E-07 0.000E+00

     Forces acting on atoms (cartesian axes, Ry/au):

     atom    1 type  1   force =     0.00000001    0.00000001    0.00328107
     atom    2 type  1   force =    -0.00000001    0.00000001    0.00328107
     atom    3 type  1   force =     0.00000000   -0.00000002    0.00328107
     atom    4 type  1   force =     0.00000000   -0.00000000    0.00328109
     atom    5 type  1   force =     0.00000000    0.00000025   -0.00161883
     atom    6 type  1   force =     0.00000000    0.00000000   -0.00161872
     atom    7 type  1   force =    -0.00000021   -0.00000012   -0.00161883
     atom    8 type  1   force =     0.00000021   -0.00000012   -0.00161883
     atom    9 type  1   force =     0.00000000    0.00000000   -0.00166199
     atom   10 type  1   force =    -0.00000000    0.00000053   -0.00166237
     atom   11 type  1   force =     0.00000046   -0.00000027   -0.00166237
     atom   12 type  1   force =    -0.00000046   -0.00000027   -0.00166237

     Total force =     0.004641     Total SCF correction =     0.000026
     Energy error            =      1.4E-04 Ry
     Gradient error          =      1.7E-03 Ry/Bohr

     number of scf cycles    =   6
     number of bfgs steps    =   5

     energy             old  =    -473.8276968995 Ry
     energy             new  =    -473.8278347938 Ry

     CASE: energy            _new < energy            _old

     new trust radius        =       0.0220344666 bohr
     new conv_thr            =       0.0000000014 Ry


ATOMIC_POSITIONS (angstrom)
Al            1.4318910000        0.8267030000        0.0000000000    0   0   0
Al            4.2956740000        0.8267030000        0.0000000000    0   0   0
Al            2.8637820000        3.3068110000        0.0000000000    0   0   0
Al            5.7275650000        3.3068110000        0.0000000000    0   0   0
Al           -0.0000000000        1.6534050039        2.3326391202
Al            2.8637820000        1.6534060000        2.3326404493
Al            1.4318918627        4.1335144981        2.3326391202
Al            4.2956731373        4.1335144981        2.3326391202
Al           -0.0000000000       -0.0000000000        4.6440693288
Al            2.8637820000       -0.0000019801        4.6440735590
Al            1.4318892851        2.4801089901        4.6440735590
Al            4.2956757149        2.4801089901        4.6440735590



     Writing config-only to output data dir ./output/pwscf.save/
     NEW-OLD atomic charge density approx. for the potential

     negative rho (up, down):  3.002E-06 0.000E+00

     total cpu time spent up to now is       48.9 secs

     Self-consistent Calculation

     iteration #  1     ecut=    40.00 Ry     beta= 0.70
     Davidson diagonalization with overlap
     ethr =  1.00E-06,  avg # of iterations =  5.1

     negative rho (up, down):  7.656E-07 0.000E+00

     total cpu time spent up to now is       49.6 secs

     total energy              =    -473.82794830 Ry
     estimated scf accuracy    <       0.00003728 Ry

     iteration #  2     ecut=    40.00 Ry     beta= 0.70
     Davidson diagonalization with overlap
     ethr =  1.04E-07,  avg # of iterations =  4.9

     negative rho (up, down):  6.771E-07 0.000E+00

     total cpu time spent up to now is       50.4 secs

     total energy              =    -473.82793472 Ry
     estimated scf accuracy    <       0.00021023 Ry

     iteration #  3     ecut=    40.00 Ry     beta= 0.70
     Davidson diagonalization with overlap
     ethr =  1.04E-07,  avg # of iterations =  4.1

     negative rho (up, down):  6.196E-07 0.000E+00

     total cpu time spent up to now is       51.1 secs

     total energy              =    -473.82796464 Ry
     estimated scf accuracy    <       0.00004309 Ry

     iteration #  4     ecut=    40.00 Ry     beta= 0.70
     Davidson diagonalization with overlap
     ethr =  1.04E-07,  avg # of iterations =  2.8

     negative rho (up, down):  5.513E-07 0.000E+00

     total cpu time spent up to now is       51.8 secs

     total energy              =    -473.82796543 Ry
     estimated scf accuracy    <       0.00007401 Ry

     iteration #  5     ecut=    40.00 Ry     beta= 0.70
     Davidson diagonalization with overlap
     ethr =  1.04E-07,  avg # of iterations =  2.0

     negative rho (up, down):  4.663E-07 0.000E+00

     total cpu time spent up to now is       52.5 secs

     total energy              =    -473.82797038 Ry
     estimated scf accuracy    <       0.00000112 Ry

     iteration #  6     ecut=    40.00 Ry     beta= 0.70
     Davidson diagonalization with overlap
     ethr =  3.11E-09,  avg # of iterations =  5.7

     negative rho (up, down):  4.602E-07 0.000E+00

     total cpu time spent up to now is       53.2 secs

     total energy              =    -473.82797105 Ry
     estimated scf accuracy    <       0.00000100 Ry

     iteration #  7     ecut=    40.00 Ry     beta= 0.70
     Davidson diagonalization with overlap
     ethr =  2.79E-09,  avg # of iterations =  1.4

     negative rho (up, down):  4.598E-07 0.000E+00

     total cpu time spent up to now is       53.8 secs

     total energy              =    -473.82797108 Ry
     estimated scf accuracy    <       0.00000012 Ry

     iteration #  8     ecut=    40.00 Ry     beta= 0.70
     Davidson diagonalization with overlap
     ethr =  3.20E-10,  avg # of iterations =  4.5

     negative rho (up, down):  4.603E-07 0.000E+00

     total cpu time spent up to now is       54.5 secs

     total energy              =    -473.82797110 Ry
     estimated scf accuracy    <       0.00000002 Ry

     iteration #  9     ecut=    40.00 Ry     beta= 0.70
     Davidson diagonalization with overlap
     ethr =  4.18E-11,  avg # of iterations =  3.8

     negative rho (up, down):  4.603E-07 0.000E+00

     total cpu time spent up to now is       55.2 secs

     End of self-consistent calculation

          k = 0.0000 0.0000 0.0000 ( 11947 PWs)   bands (ev):

    -8.7403  -7.0636  -4.4063  -2.8833  -2.8833  -2.8833  -2.8575  -2.8575
    -2.8575  -1.4993  -1.4993  -1.4993  -1.2942  -0.9655  -0.9655  -0.9655
     1.3439   1.3440   1.3440   1.5775   1.5775   1.5775

          k = 0.0000 0.1443 0.0000 ( 11985 PWs)   bands (ev):

    -8.6465  -6.9705  -4.3135  -4.2203  -3.4977  -3.4977  -2.5940  -2.0730
    -2.0730  -1.9015  -1.9015  -1.3894  -1.2059  -0.4097  -0.4097  -0.0450
     0.5171   0.8699   0.8699   2.2342   2.2342   2.3002

          k = 0.0000 0.2887 0.0000 ( 12015 PWs)   bands (ev):

    -8.3656  -6.6918  -5.4045  -4.0358  -3.9484  -3.9484  -3.7576  -2.3261
    -2.3261  -1.1706  -1.1249  -1.1249  -0.9410   0.2138   0.2138   0.3903
     0.7773   0.7773   1.8570   2.0870   2.5629   3.0233

          k = 0.0000 0.4330 0.0000 ( 12025 PWs)   bands (ev):

    -7.8987  -6.4152  -6.2285  -4.7576  -4.2198  -4.2198  -3.5749  -2.5889
    -2.5889  -2.1217  -0.5002  -0.2523  -0.2523   0.3403   0.3403   0.8821
     1.7483   1.7483   2.2338   2.7196   2.7196   2.9891

          k = 0.0000-0.5774 0.0000 ( 12036 PWs)   bands (ev):

    -7.2477  -7.2477  -5.5828  -5.5828  -4.3105  -4.3104  -2.9344  -2.9344
    -2.6773  -2.6773  -0.1531  -0.1531   0.1139   0.1139   1.3048   1.3048
     1.5599   1.5599   2.7058   2.7058   3.0696   3.0696

          k = 0.1250 0.2165 0.0000 ( 12005 PWs)   bands (ev):

    -8.4592  -6.7846  -4.7654  -4.7654  -4.1283  -3.1273  -3.1273  -2.6167
    -2.5862  -1.2395  -1.0292  -0.7686  -0.7686  -0.6951  -0.1814  -0.1814
     1.2475   1.2476   1.5952   1.8035   2.4758   2.5186

          k = 0.1250 0.3608 0.0000 ( 12006 PWs)   bands (ev):

    -8.0853  -6.4136  -5.8629  -5.1301  -4.2108  -3.7589  -3.4862  -2.9576
    -1.5903  -1.5397  -1.3732  -0.9072  -0.6764   0.1164   0.6529   1.1734
     1.3343   1.6246   2.1092   2.3447   2.3934   2.8218

          k = 0.1250-0.6495 0.0000 ( 12036 PWs)   bands (ev):

    -7.5263  -6.7846  -5.8591  -5.3129  -5.1236  -3.6664  -3.2081  -3.1364
    -2.4808  -1.5298  -1.0606  -0.3360  -0.1486   0.5483   0.7943   1.2256
     1.5950   1.6748   2.1409   2.9063   3.1579   3.2599

          k = 0.2500-0.7217 0.0000 ( 12043 PWs)   bands (ev):

    -7.6193  -6.1388  -6.1388  -5.9513  -4.4837  -4.4837  -3.2996  -1.8524
    -1.8524  -1.8189  -1.7791  -0.4731  -0.2363   0.1051   0.9383   1.1414
     1.1414   2.0989   2.4943   2.4943   2.8468   3.1125

          k = 0.2500-0.5774 0.0000 ( 12031 PWs)   bands (ev):

    -6.9696  -6.9696  -6.2308  -5.3070  -5.3070  -4.5748  -2.6615  -2.6615
    -1.9407  -1.8866  -0.4977  -0.4725  -0.3593   0.3765   0.3765   0.9948
     1.0666   1.3117   2.6727   3.6164   3.6988   3.8010

     the Fermi energy is     1.7248 ev

!    total energy              =    -473.82797111 Ry
     total all-electron energy =     -5827.541350 Ry
     estimated scf accuracy    <          7.4E-10 Ry
     smearing contrib. (-TS)   =      -0.00030306 Ry
     internal energy E=F+TS    =    -473.82766804 Ry

     The total energy is F=E-TS. E is the sum of the following terms:
     one-electron contribution =    -172.28537252 Ry
     hartree contribution      =      97.10242050 Ry
     xc contribution           =     -30.43949065 Ry
     ewald contribution        =      47.94075618 Ry
     one-center paw contrib.   =    -416.14598155 Ry

     convergence has been achieved in   9 iterations

     negative rho (up, down):  4.603E-07 0.000E+00

     Forces acting on atoms (cartesian axes, Ry/au):

     atom    1 type  1   force =    -0.00000000   -0.00000000    0.00267229
     atom    2 type  1   force =     0.00000000   -0.00000000    0.00267229
     atom    3 type  1   force =     0.00000000    0.00000000    0.00267229
     atom    4 type  1   force =     0.00000000   -0.00000000    0.00267230
     atom    5 type  1   force =     0.00000000    0.00000024   -0.00224757
     atom    6 type  1   force =     0.00000000    0.00000000   -0.00224748
     atom    7 type  1   force =    -0.00000021   -0.00000012   -0.00224757
     atom    8 type  1   force =     0.00000021   -0.00000012   -0.00224757
     atom    9 type  1   force =     0.00000000    0.00000000   -0.00042425
     atom   10 type  1   force =    -0.00000000    0.00000063   -0.00042491
     atom   11 type  1   force =     0.00000055   -0.00000032   -0.00042491
     atom   12 type  1   force =    -0.00000055   -0.00000032   -0.00042491

     Total force =     0.004575     Total SCF correction =     0.000021
     Energy error            =      1.4E-04 Ry
     Gradient error          =      2.2E-03 Ry/Bohr

     number of scf cycles    =   7
     number of bfgs steps    =   6

     energy             old  =    -473.8278347938 Ry
     energy             new  =    -473.8279711071 Ry

     CASE: energy            _new < energy            _old

     new trust radius        =       0.0220846988 bohr
     new conv_thr            =       0.0000000014 Ry


ATOMIC_POSITIONS (angstrom)
Al            1.4318910000        0.8267030000        0.0000000000    0   0   0
Al            4.2956740000        0.8267030000        0.0000000000    0   0   0
Al            2.8637820000        3.3068110000        0.0000000000    0   0   0
Al            5.7275650000        3.3068110000        0.0000000000    0   0   0
Al           -0.0000000000        1.6534048531        2.3282774097
Al            2.8637820000        1.6534060000        2.3282793338
Al            1.4318919932        4.1335145734        2.3282774097
Al            4.2956730068        4.1335145734        2.3282774097
Al           -0.0000000000       -0.0000000000        4.6323826095
Al            2.8637820000       -0.0000023024        4.6323879336
Al            1.4318890060        2.4801091512        4.6323879336
Al            4.2956759940        2.4801091512        4.6323879336



     Writing config-only to output data dir ./output/pwscf.save/
     NEW-OLD atomic charge density approx. for the potential

     negative rho (up, down):  3.017E-06 0.000E+00

     total cpu time spent up to now is       55.8 secs

     Self-consistent Calculation

     iteration #  1     ecut=    40.00 Ry     beta= 0.70
     Davidson diagonalization with overlap
     ethr =  1.00E-06,  avg # of iterations =  5.1

     negative rho (up, down):  7.315E-07 0.000E+00

     total cpu time spent up to now is       56.6 secs

     total energy              =    -473.82801269 Ry
     estimated scf accuracy    <       0.00004105 Ry

     iteration #  2     ecut=    40.00 Ry     beta= 0.70
     Davidson diagonalization with overlap
     ethr =  1.14E-07,  avg # of iterations =  6.2

     negative rho (up, down):  6.732E-07 0.000E+00

     total cpu time spent up to now is       57.4 secs

     total energy              =    -473.82794626 Ry
     estimated scf accuracy    <       0.00083234 Ry

     iteration #  3     ecut=    40.00 Ry     beta= 0.70
     Davidson diagonalization with overlap
     c_bands:  1 eigenvalues not converged
     ethr =  1.14E-07,  avg # of iterations =  7.4

     negative rho (up, down):  6.195E-07 0.000E+00

     total cpu time spent up to now is       58.2 secs

     total energy              =    -473.82801655 Ry
     estimated scf accuracy    <       0.00031902 Ry

     iteration #  4     ecut=    40.00 Ry     beta= 0.70
     Davidson diagonalization with overlap
     ethr =  1.14E-07,  avg # of iterations =  3.9

     negative rho (up, down):  5.097E-07 0.000E+00

     total cpu time spent up to now is       58.9 secs

     total energy              =    -473.82803687 Ry
     estimated scf accuracy    <       0.00001316 Ry

     iteration #  5     ecut=    40.00 Ry     beta= 0.70
     Davidson diagonalization with overlap
     ethr =  3.66E-08,  avg # of iterations =  2.7

     negative rho (up, down):  4.417E-07 0.000E+00

     total cpu time spent up to now is       59.5 secs

     total energy              =    -473.82803826 Ry
     estimated scf accuracy    <       0.00000127 Ry

     iteration #  6     ecut=    40.00 Ry     beta= 0.70
     Davidson diagonalization with overlap
     ethr =  3.52E-09,  avg # of iterations =  4.8

     negative rho (up, down):  4.411E-07 0.000E+00

     total cpu time spent up to now is       60.3 secs

     total energy              =    -473.82803869 Ry
     estimated scf accuracy    <       0.00000100 Ry

     iteration #  7     ecut=    40.00 Ry     beta= 0.70
     Davidson diagonalization with overlap
     ethr =  2.77E-09,  avg # of iterations =  1.2

     negative rho (up, down):  4.400E-07 0.000E+00

     total cpu time spent up to now is       60.9 secs

     total energy              =    -473.82803872 Ry
     estimated scf accuracy    <       0.00000014 Ry

     iteration #  8     ecut=    40.00 Ry     beta= 0.70
     Davidson diagonalization with overlap
     ethr =  3.93E-10,  avg # of iterations =  4.7

     negative rho (up, down):  4.398E-07 0.000E+00

     total cpu time spent up to now is       61.6 secs

     total energy              =    -473.82803874 Ry
     estimated scf accuracy    <       0.00000001 Ry

     iteration #  9     ecut=    40.00 Ry     beta= 0.70
     Davidson diagonalization with overlap
     ethr =  3.13E-11,  avg # of iterations =  4.8

     negative rho (up, down):  4.398E-07 0.000E+00

     total cpu time spent up to now is       62.3 secs

     total energy              =    -473.82803875 Ry
     estimated scf accuracy    <       0.00000001 Ry

     iteration # 10     ecut=    40.00 Ry     beta= 0.70
     Davidson diagonalization with overlap
     ethr =  2.96E-11,  avg # of iterations =  1.1

     negative rho (up, down):  4.399E-07 0.000E+00

     total cpu time spent up to now is       62.9 secs

     total energy              =    -473.82803875 Ry
     estimated scf accuracy    <          7.1E-09 Ry

     iteration # 11     ecut=    40.00 Ry     beta= 0.70
     Davidson diagonalization with overlap
     ethr =  1.99E-11,  avg # of iterations =  2.2

     negative rho (up, down):  4.400E-07 0.000E+00

     total cpu time spent up to now is       63.6 secs

     End of self-consistent calculation

          k = 0.0000 0.0000 0.0000 ( 11947 PWs)   bands (ev):

    -8.7602  -7.0738  -4.4004  -2.9037  -2.9037  -2.9037  -2.8777  -2.8777
    -2.8777  -1.5115  -1.5115  -1.5115  -1.2920  -0.9748  -0.9748  -0.9748
     1.3491   1.3491   1.3491   1.5833   1.5833   1.5833

          k = 0.0000 0.1443 0.0000 ( 11985 PWs)   bands (ev):

    -8.6664  -6.9808  -4.3076  -4.2406  -3.5180  -3.5180  -2.6050  -2.0933
    -2.0933  -1.9128  -1.9128  -1.4092  -1.2036  -0.4197  -0.4197  -0.0458
     0.5123   0.8749   0.8749   2.2393   2.2393   2.3144

          k = 0.0000 0.2887 0.0000 ( 12015 PWs)   bands (ev):

    -8.3856  -6.7020  -5.4247  -4.0299  -3.9686  -3.9686  -3.7683  -2.3371
    -2.3371  -1.1665  -1.1447  -1.1447  -0.9388   0.2129   0.2129   0.3716
     0.7723   0.7723   1.8544   2.0801   2.5770   3.0242

          k = 0.0000 0.4330 0.0000 ( 12025 PWs)   bands (ev):

    -7.9187  -6.4353  -6.2388  -4.7681  -4.2401  -4.2401  -3.5691  -2.5998
    -2.5998  -2.1162  -0.4981  -0.2601  -0.2601   0.3322   0.3322   0.8833
     1.7378   1.7378   2.2147   2.7059   2.7059   3.0025

          k = 0.0000-0.5774 0.0000 ( 12036 PWs)   bands (ev):

    -7.2677  -7.2677  -5.5932  -5.5932  -4.3307  -4.3307  -2.9287  -2.9287
    -2.6882  -2.6882  -0.1504  -0.1504   0.1158   0.1158   1.2847   1.2847
     1.5422   1.5422   2.6948   2.6948   3.0693   3.0693

          k = 0.1250 0.2165 0.0000 ( 12005 PWs)   bands (ev):

    -8.4791  -6.7949  -4.7856  -4.7856  -4.1224  -3.1381  -3.1381  -2.6371
    -2.6065  -1.2518  -1.0270  -0.7765  -0.7765  -0.7044  -0.1889  -0.1889
     1.2373   1.2373   1.6002   1.8082   2.4899   2.5199

          k = 0.1250 0.3608 0.0000 ( 12006 PWs)   bands (ev):

    -8.1053  -6.4239  -5.8831  -5.1503  -4.2214  -3.7531  -3.4969  -2.9780
    -1.5852  -1.5601  -1.3846  -0.9033  -0.6742   0.1064   0.6341   1.1616
     1.3374   1.6181   2.1063   2.3378   2.3852   2.8356

          k = 0.1250-0.6495 0.0000 ( 12036 PWs)   bands (ev):

    -7.5464  -6.8046  -5.8695  -5.3330  -5.1341  -3.6771  -3.2024  -3.1567
    -2.4752  -1.5410  -1.0558  -0.3558  -0.1466   0.5500   0.7851   1.2133
[...]
     estimated scf accuracy    <       0.00000078 Ry

     iteration #  6     ecut=    40.00 Ry     beta= 0.70
     Davidson diagonalization with overlap
     ethr =  2.17E-09,  avg # of iterations =  4.5

     negative rho (up, down):  3.908E-07 0.000E+00

     total cpu time spent up to now is       84.8 secs

     total energy              =    -473.82816373 Ry
     estimated scf accuracy    <       0.00000021 Ry

     iteration #  7     ecut=    40.00 Ry     beta= 0.70
     Davidson diagonalization with overlap
     ethr =  5.70E-10,  avg # of iterations =  2.2

     negative rho (up, down):  3.908E-07 0.000E+00

     total cpu time spent up to now is       85.5 secs

     total energy              =    -473.82816376 Ry
     estimated scf accuracy    <       0.00000001 Ry

     iteration #  8     ecut=    40.00 Ry     beta= 0.70
     Davidson diagonalization with overlap
     ethr =  2.83E-11,  avg # of iterations =  5.8

     negative rho (up, down):  3.910E-07 0.000E+00

     total cpu time spent up to now is       86.3 secs

     total energy              =    -473.82816377 Ry
     estimated scf accuracy    <       0.00000002 Ry

     iteration #  9     ecut=    40.00 Ry     beta= 0.70
     Davidson diagonalization with overlap
     ethr =  2.83E-11,  avg # of iterations =  2.6

     negative rho (up, down):  3.910E-07 0.000E+00

     total cpu time spent up to now is       87.0 secs

     total energy              =    -473.82816377 Ry
     estimated scf accuracy    <          3.3E-09 Ry

     iteration # 10     ecut=    40.00 Ry     beta= 0.70
     Davidson diagonalization with overlap
     ethr =  9.12E-12,  avg # of iterations =  1.0

     negative rho (up, down):  3.910E-07 0.000E+00

     total cpu time spent up to now is       87.6 secs

     total energy              =    -473.82816377 Ry
     estimated scf accuracy    <          1.5E-09 Ry

     iteration # 11     ecut=    40.00 Ry     beta= 0.70
     Davidson diagonalization with overlap
     ethr =  4.24E-12,  avg # of iterations =  2.4

     negative rho (up, down):  3.910E-07 0.000E+00

     total cpu time spent up to now is       88.2 secs

     End of self-consistent calculation

          k = 0.0000 0.0000 0.0000 ( 11947 PWs)   bands (ev):

    -8.7749  -7.0819  -4.3961  -2.9185  -2.9185  -2.9185  -2.8928  -2.8928
    -2.8928  -1.5212  -1.5212  -1.5212  -1.2904  -0.9821  -0.9821  -0.9821
     1.3529   1.3529   1.3529   1.5876   1.5876   1.5876

          k = 0.0000 0.1443 0.0000 ( 11985 PWs)   bands (ev):

    -8.6812  -6.9888  -4.3033  -4.2555  -3.5329  -3.5329  -2.6136  -2.1082
    -2.1082  -1.9217  -1.9217  -1.4238  -1.2020  -0.4275  -0.4275  -0.0469
     0.5086   0.8785   0.8785   2.2431   2.2431   2.3253

          k = 0.0000 0.2887 0.0000 ( 12015 PWs)   bands (ev):

    -8.4003  -6.7101  -5.4395  -4.0256  -3.9836  -3.9836  -3.7767  -2.3457
    -2.3457  -1.1636  -1.1593  -1.1593  -0.9372   0.2118   0.2118   0.3578
     0.7685   0.7685   1.8521   2.0748   2.5878   3.0249

          k = 0.0000 0.4330 0.0000 ( 12025 PWs)   bands (ev):

    -7.9335  -6.4501  -6.2470  -4.7764  -4.2550  -4.2550  -3.5648  -2.6084
    -2.6084  -2.1122  -0.4967  -0.2662  -0.2662   0.3264   0.3264   0.8840
     1.7295   1.7296   2.2006   2.6956   2.6956   3.0129

          k = 0.0000-0.5774 0.0000 ( 12036 PWs)   bands (ev):

    -7.2825  -7.2825  -5.6014  -5.6014  -4.3456  -4.3456  -2.9245  -2.9245
    -2.6967  -2.6967  -0.1485  -0.1485   0.1171   0.1171   1.2698   1.2698
     1.5294   1.5294   2.6860   2.6860   3.0690   3.0690

          k = 0.1250 0.2165 0.0000 ( 12005 PWs)   bands (ev):

    -8.4939  -6.8030  -4.8005  -4.8005  -4.1181  -3.1466  -3.1466  -2.6520
    -2.6216  -1.2615  -1.0255  -0.7826  -0.7826  -0.7118  -0.1941  -0.1941
     1.2293   1.2293   1.6038   1.8117   2.5007   2.5207

          k = 0.1250 0.3608 0.0000 ( 12006 PWs)   bands (ev):

    -8.1200  -6.4320  -5.8979  -5.1652  -4.2297  -3.7488  -3.5054  -2.9930
    -1.5815  -1.5750  -1.3937  -0.9004  -0.6727   0.0985   0.6203   1.1525
     1.3396   1.6136   2.1038   2.3325   2.3790   2.8462

          k = 0.1250-0.6495 0.0000 ( 12036 PWs)   bands (ev):

    -7.5611  -6.8194  -5.8776  -5.3479  -5.1423  -3.6856  -3.1981  -3.1717
    -2.4711  -1.5498  -1.0523  -0.3704  -0.1452   0.5511   0.7779   1.2041
     1.5842   1.6540   2.1282   2.8914   3.1292   3.2269

          k = 0.2500-0.7217 0.0000 ( 12043 PWs)   bands (ev):

    -7.6541  -6.1737  -6.1737  -5.9699  -4.5026  -4.5026  -3.2896  -1.8543
    -1.8431  -1.8431  -1.8145  -0.4958  -0.2328   0.0884   0.9044   1.1430
     1.1430   2.0964   2.4611   2.4611   2.8564   3.1054

          k = 0.2500-0.5774 0.0000 ( 12031 PWs)   bands (ev):

    -7.0045  -7.0045  -6.2657  -5.3257  -5.3257  -4.5937  -2.6517  -2.6517
    -1.9313  -1.9221  -0.5332  -0.5075  -0.3813   0.3796   0.3796   0.9751
     1.0689   1.2973   2.6804   3.5907   3.7084   3.7084

     the Fermi energy is     1.7057 ev

!    total energy              =    -473.82816377 Ry
     total all-electron energy =     -5827.541543 Ry
     estimated scf accuracy    <          2.4E-12 Ry
     smearing contrib. (-TS)   =      -0.00029169 Ry
     internal energy E=F+TS    =    -473.82787208 Ry

     The total energy is F=E-TS. E is the sum of the following terms:
     one-electron contribution =    -173.66763398 Ry
     hartree contribution      =      97.78450218 Ry
     xc contribution           =     -30.45768170 Ry
     ewald contribution        =      48.66218017 Ry
     one-center paw contrib.   =    -416.14923875 Ry

     convergence has been achieved in  11 iterations

     negative rho (up, down):  3.910E-07 0.000E+00

     Forces acting on atoms (cartesian axes, Ry/au):

     atom    1 type  1   force =     0.00000009    0.00000005    0.00028884
     atom    2 type  1   force =    -0.00000009    0.00000005    0.00028884
     atom    3 type  1   force =     0.00000000   -0.00000010    0.00028884
     atom    4 type  1   force =     0.00000000    0.00000000    0.00028878
     atom    5 type  1   force =     0.00000000    0.00000022   -0.00080565
     atom    6 type  1   force =     0.00000000    0.00000000   -0.00080576
     atom    7 type  1   force =    -0.00000019   -0.00000011   -0.00080565
     atom    8 type  1   force =     0.00000019   -0.00000011   -0.00080565
     atom    9 type  1   force =     0.00000000   -0.00000000    0.00051730
     atom   10 type  1   force =     0.00000000    0.00000034    0.00051671
     atom   11 type  1   force =     0.00000030   -0.00000017    0.00051671
     atom   12 type  1   force =    -0.00000030   -0.00000017    0.00051671

     Total force =     0.001914     Total SCF correction =     0.000002
     Energy error            =      4.8E-05 Ry
     Gradient error          =      8.1E-04 Ry/Bohr

     number of scf cycles    =  11
     number of bfgs steps    =  10

     energy             old  =    -473.8281156529 Ry
     energy             new  =    -473.8281637726 Ry

     CASE: energy            _new < energy            _old

     new trust radius        =       0.0063778204 bohr
     new conv_thr            =       0.0000000010 Ry


ATOMIC_POSITIONS (angstrom)
Al            1.4318910000        0.8267030000        0.0000000000    0   0   0
Al            4.2956740000        0.8267030000        0.0000000000    0   0   0
Al            2.8637820000        3.3068110000        0.0000000000    0   0   0
Al            5.7275650000        3.3068110000        0.0000000000    0   0   0
Al           -0.0000000000        1.6534063337        2.3120858582
Al            2.8637820000        1.6534060000        2.3120873134
Al            1.4318907110        4.1335138331        2.3120858582
Al            4.2956742890        4.1335138331        2.3120858582
Al            0.0000000000       -0.0000000000        4.6238032748
Al            2.8637820000       -0.0000007784        4.6238063024
Al            1.4318903259        2.4801083892        4.6238063024
Al            4.2956746741        2.4801083892        4.6238063024



     Writing config-only to output data dir ./output/pwscf.save/
     NEW-OLD atomic charge density approx. for the potential

     negative rho (up, down):  3.682E-07 0.000E+00

     total cpu time spent up to now is       88.9 secs

     Self-consistent Calculation

     iteration #  1     ecut=    40.00 Ry     beta= 0.70
     Davidson diagonalization with overlap
     ethr =  1.00E-06,  avg # of iterations =  2.3

     Threshold (ethr) on eigenvalues was too large:
     Diagonalizing with lowered threshold

     Davidson diagonalization with overlap
     ethr =  4.20E-08,  avg # of iterations =  4.1

     negative rho (up, down):  3.766E-07 0.000E+00

     total cpu time spent up to now is       90.2 secs

     total energy              =    -473.82814426 Ry
     estimated scf accuracy    <       0.00004093 Ry

     iteration #  2     ecut=    40.00 Ry     beta= 0.70
     Davidson diagonalization with overlap
     ethr =  1.14E-07,  avg # of iterations =  6.2

     negative rho (up, down):  3.771E-07 0.000E+00

     total cpu time spent up to now is       90.9 secs

     total energy              =    -473.82796070 Ry
     estimated scf accuracy    <       0.00370630 Ry

     iteration #  3     ecut=    40.00 Ry     beta= 0.70
     Davidson diagonalization with overlap
     ethr =  1.14E-07,  avg # of iterations =  6.9

     negative rho (up, down):  3.780E-07 0.000E+00

     total cpu time spent up to now is       91.7 secs

     total energy              =    -473.82817337 Ry
     estimated scf accuracy    <       0.00000551 Ry

     iteration #  4     ecut=    40.00 Ry     beta= 0.70
     Davidson diagonalization with overlap
     ethr =  1.53E-08,  avg # of iterations =  3.5

     negative rho (up, down):  3.799E-07 0.000E+00

     total cpu time spent up to now is       92.4 secs

     total energy              =    -473.82817496 Ry
     estimated scf accuracy    <       0.00000081 Ry

     iteration #  5     ecut=    40.00 Ry     beta= 0.70
     Davidson diagonalization with overlap
     ethr =  2.25E-09,  avg # of iterations =  4.1

     negative rho (up, down):  3.803E-07 0.000E+00

     total cpu time spent up to now is       93.1 secs

     total energy              =    -473.82817509 Ry
     estimated scf accuracy    <       0.00000021 Ry

     iteration #  6     ecut=    40.00 Ry     beta= 0.70
     Davidson diagonalization with overlap
     ethr =  5.78E-10,  avg # of iterations =  3.2

     negative rho (up, down):  3.804E-07 0.000E+00

     total cpu time spent up to now is       93.7 secs

     total energy              =    -473.82817511 Ry
     estimated scf accuracy    <       0.00000003 Ry

     iteration #  7     ecut=    40.00 Ry     beta= 0.70
     Davidson diagonalization with overlap
     ethr =  8.81E-11,  avg # of iterations =  3.8

     negative rho (up, down):  3.806E-07 0.000E+00

     total cpu time spent up to now is       94.4 secs

     total energy              =    -473.82817512 Ry
     estimated scf accuracy    <          5.7E-09 Ry

     iteration #  8     ecut=    40.00 Ry     beta= 0.70
     Davidson diagonalization with overlap
     ethr =  1.59E-11,  avg # of iterations =  4.0

     negative rho (up, down):  3.807E-07 0.000E+00

     total cpu time spent up to now is       95.1 secs

     total energy              =    -473.82817512 Ry
     estimated scf accuracy    <          1.0E-09 Ry

     iteration #  9     ecut=    40.00 Ry     beta= 0.70
     Davidson diagonalization with overlap
     ethr =  2.88E-12,  avg # of iterations =  4.0

     negative rho (up, down):  3.807E-07 0.000E+00

     total cpu time spent up to now is       95.8 secs

     End of self-consistent calculation

          k = 0.0000 0.0000 0.0000 ( 11947 PWs)   bands (ev):

    -8.7745  -7.0817  -4.3962  -2.9181  -2.9181  -2.9181  -2.8924  -2.8924
    -2.8924  -1.5209  -1.5209  -1.5209  -1.2904  -0.9819  -0.9819  -0.9819
     1.3528   1.3528   1.3528   1.5874   1.5874   1.5874

          k = 0.0000 0.1443 0.0000 ( 11985 PWs)   bands (ev):

    -8.6807  -6.9886  -4.3034  -4.2550  -3.5325  -3.5325  -2.6134  -2.1078
    -2.1078  -1.9215  -1.9215  -1.4234  -1.2021  -0.4273  -0.4273  -0.0469
     0.5087   0.8784   0.8784   2.2430   2.2430   2.3250

          k = 0.0000 0.2887 0.0000 ( 12015 PWs)   bands (ev):

    -8.3999  -6.7099  -5.4391  -4.0257  -3.9831  -3.9831  -3.7765  -2.3455
    -2.3455  -1.1637  -1.1589  -1.1589  -0.9373   0.2118   0.2118   0.3582
     0.7686   0.7686   1.8522   2.0750   2.5875   3.0249

          k = 0.0000 0.4330 0.0000 ( 12025 PWs)   bands (ev):

    -7.9330  -6.4496  -6.2468  -4.7762  -4.2545  -4.2545  -3.5649  -2.6082
    -2.6082  -2.1124  -0.4967  -0.2660  -0.2660   0.3266   0.3266   0.8839
     1.7297   1.7297   2.2010   2.6959   2.6959   3.0126

          k = 0.0000-0.5774 0.0000 ( 12036 PWs)   bands (ev):

    -7.2821  -7.2821  -5.6012  -5.6012  -4.3452  -4.3452  -2.9246  -2.9246
    -2.6965  -2.6965  -0.1485  -0.1485   0.1170   0.1170   1.2702   1.2702
     1.5298   1.5298   2.6862   2.6862   3.0690   3.0690

          k = 0.1250 0.2165 0.0000 ( 12005 PWs)   bands (ev):

    -8.4934  -6.8028  -4.8000  -4.8000  -4.1182  -3.1464  -3.1464  -2.6515
    -2.6211  -1.2613  -1.0255  -0.7824  -0.7824  -0.7116  -0.1940  -0.1940
     1.2295   1.2295   1.6037   1.8116   2.5005   2.5206

          k = 0.1250 0.3608 0.0000 ( 12006 PWs)   bands (ev):

    -8.1196  -6.4318  -5.8975  -5.1647  -4.2295  -3.7489  -3.5052  -2.9925
    -1.5816  -1.5745  -1.3935  -0.9005  -0.6728   0.0987   0.6208   1.1528
     1.3395   1.6138   2.1038   2.3326   2.3792   2.8459

          k = 0.1250-0.6495 0.0000 ( 12036 PWs)   bands (ev):

    -7.5607  -6.8190  -5.8774  -5.3475  -5.1421  -3.6854  -3.1983  -3.1712
    -2.4713  -1.5496  -1.0524  -0.3700  -0.1452   0.5511   0.7781   1.2043
     1.5843   1.6542   2.1284   2.8916   3.1296   3.2273

          k = 0.2500-0.7217 0.0000 ( 12043 PWs)   bands (ev):

    -7.6537  -6.1732  -6.1732  -5.9697  -4.5024  -4.5024  -3.2897  -1.8539
    -1.8432  -1.8432  -1.8140  -0.4956  -0.2329   0.0885   0.9049   1.1429
     1.1429   2.0964   2.4615   2.4616   2.8563   3.1055

          k = 0.2500-0.5774 0.0000 ( 12031 PWs)   bands (ev):

    -7.0040  -7.0040  -6.2653  -5.3255  -5.3255  -4.5935  -2.6519  -2.6519
    -1.9314  -1.9216  -0.5327  -0.5071  -0.3811   0.3795   0.3795   0.9753
     1.0688   1.2974   2.6803   3.5910   3.7083   3.7083

     the Fermi energy is     1.7059 ev

!    total energy              =    -473.82817512 Ry
     total all-electron energy =     -5827.541554 Ry
     estimated scf accuracy    <          1.6E-10 Ry
     smearing contrib. (-TS)   =      -0.00029199 Ry
     internal energy E=F+TS    =    -473.82788313 Ry

     The total energy is F=E-TS. E is the sum of the following terms:
     one-electron contribution =    -173.65182518 Ry
     hartree contribution      =      97.77677280 Ry
     xc contribution           =     -30.45746068 Ry
     ewald contribution        =      48.65382525 Ry
     one-center paw contrib.   =    -416.14919533 Ry

     convergence has been achieved in   9 iterations

     negative rho (up, down):  3.807E-07 0.000E+00

     Forces acting on atoms (cartesian axes, Ry/au):

     atom    1 type  1   force =     0.00000005    0.00000003   -0.00007037
     atom    2 type  1   force =    -0.00000005    0.00000003   -0.00007037
     atom    3 type  1   force =    -0.00000000   -0.00000006   -0.00007037
     atom    4 type  1   force =     0.00000000    0.00000000   -0.00007046
     atom    5 type  1   force =     0.00000000   -0.00000016   -0.00003992
     atom    6 type  1   force =    -0.00000000    0.00000000   -0.00004012
     atom    7 type  1   force =     0.00000014    0.00000008   -0.00003992
     atom    8 type  1   force =    -0.00000014    0.00000008   -0.00003992
     atom    9 type  1   force =     0.00000000   -0.00000000    0.00011058
     atom   10 type  1   force =     0.00000000    0.00000023    0.00011029
     atom   11 type  1   force =     0.00000020   -0.00000011    0.00011029
     atom   12 type  1   force =    -0.00000020   -0.00000011    0.00011029

     Total force =     0.000235     Total SCF correction =     0.000016
     Energy error            =      1.1E-05 Ry
     Gradient error          =      1.1E-04 Ry/Bohr

     bfgs converged in  12 scf cycles and  11 bfgs steps
     (criteria: energy <  1.0E-04 Ry, force <  7.0E-04 Ry/Bohr)

     End of BFGS Geometry Optimization

     Final energy             =    -473.8281751185 Ry

     File ./output/pwscf.bfgs deleted, as requested
Begin final coordinates

ATOMIC_POSITIONS (angstrom)
Al            1.4318910000        0.8267030000        0.0000000000    0   0   0
Al            4.2956740000        0.8267030000        0.0000000000    0   0   0
Al            2.8637820000        3.3068110000        0.0000000000    0   0   0
Al            5.7275650000        3.3068110000        0.0000000000    0   0   0
Al           -0.0000000000        1.6534063337        2.3120858582
Al            2.8637820000        1.6534060000        2.3120873134
Al            1.4318907110        4.1335138331        2.3120858582
Al            4.2956742890        4.1335138331        2.3120858582
Al            0.0000000000       -0.0000000000        4.6238032748
Al            2.8637820000       -0.0000007784        4.6238063024
Al            1.4318903259        2.4801083892        4.6238063024
Al            4.2956746741        2.4801083892        4.6238063024
End final coordinates



     Writing all to output data dir ./output/pwscf.save/
 
     init_run     :      0.44s CPU      0.50s WALL (       1 calls)
     electrons    :     86.93s CPU     88.70s WALL (      12 calls)
     update_pot   :      2.88s CPU      2.90s WALL (      11 calls)
     forces       :      1.93s CPU      1.98s WALL (      12 calls)

     Called by init_run:
     wfcinit      :      0.16s CPU      0.17s WALL (       1 calls)
     potinit      :      0.11s CPU      0.13s WALL (       1 calls)
     hinit0       :      0.06s CPU      0.07s WALL (       1 calls)

     Called by electrons:
     c_bands      :     66.35s CPU     67.09s WALL (     124 calls)
     sum_band     :      7.72s CPU      7.93s WALL (     124 calls)
     v_of_rho     :      0.90s CPU      1.03s WALL (     127 calls)
     newd         :      2.77s CPU      2.83s WALL (     127 calls)
     PAW_pot      :     10.97s CPU     11.05s WALL (     138 calls)
     mix_rho      :      0.17s CPU      0.19s WALL (     124 calls)

     Called by c_bands:
     init_us_2    :      1.04s CPU      1.07s WALL (    2720 calls)
     init_us_2:cp :      1.03s CPU      1.07s WALL (    2720 calls)
     cegterg      :     56.67s CPU     57.29s WALL (    1240 calls)

     Called by *egterg:
     cdiaghg      :      3.69s CPU      3.73s WALL (    6130 calls)
     h_psi        :     47.56s CPU     48.08s WALL (    6340 calls)
     s_psi        :      2.26s CPU      2.29s WALL (    6340 calls)
     g_psi        :      0.10s CPU      0.10s WALL (    5090 calls)

     Called by h_psi:
     h_psi:calbec :      2.77s CPU      2.82s WALL (    6340 calls)
     vloc_psi     :     42.23s CPU     42.66s WALL (    6340 calls)
     add_vuspsi   :      2.42s CPU      2.46s WALL (    6340 calls)

     General routines
     calbec       :      3.77s CPU      3.84s WALL (    8170 calls)
     fft          :      1.69s CPU      1.77s WALL (    1779 calls)
     ffts         :      0.04s CPU      0.05s WALL (     251 calls)
     fftw         :     43.23s CPU     43.68s WALL (  187020 calls)
     interpolate  :      0.08s CPU      0.08s WALL (     127 calls)
 
     Parallel routines
 
     PWSCF        :   1m33.68s CPU   1m36.82s WALL

 
   This run was terminated on:  11:12:57  17Jun2023            

=------------------------------------------------------------------------------=
   JOB DONE.
=------------------------------------------------------------------------------=
