
     Program PWSCF v.6.7MaX starts on 12Jun2023 at 18:22:41 

     This program is part of the open-source Quantum ESPRESSO suite
     for quantum simulation of materials; please cite
         "P. Giannozzi et al., J. Phys.:Condens. Matter 21 395502 (2009);
         "P. Giannozzi et al., J. Phys.:Condens. Matter 29 465901 (2017);
          URL http://www.quantum-espresso.org", 
     in publications or presentations arising from this work. More details at
     http://www.quantum-espresso.org/quote

     Parallel version (MPI), running on     6 processors

     MPI processes distributed on     1 nodes
     R & G space division:  proc/nbgrp/npool/nimage =       6
     Waiting for input...
     Reading input from standard input

     Current dimensions of program PWSCF are:
     Max number of different atomic species (ntypx) = 10
     Max number of k-points (npk) =  40000
     Max angular momentum in pseudopotentials (lmaxx) =  3
     file Al.pbe-n-kjpaw_psl.1.0.0.UPF: wavefunction(s)  3S 3P renormalized

     Subspace diagonalization in iterative solution of the eigenvalue problem:
     one sub-group per band group will be used
     scalapack distributed-memory algorithm (size of sub-group:  2*  2 procs)

     Found symmetry operation: I + ( -0.5000  0.0000  0.0000)
     This is a supercell, fractional translations are disabled
     Message from routine setup:
     using ibrav=0 with symmetry is DISCOURAGED, use correct ibrav instead

     Parallelization info
     --------------------
     sticks:   dense  smooth     PW     G-vecs:    dense   smooth      PW
     Min         324     159     46                25432     8981    1379
     Max         325     160     48                25439     8996    1382
     Sum        1945     955    283               152603    53909    8283



     bravais-lattice index     =            0
     lattice parameter (alat)  =      10.8235  a.u.
     unit-cell volume          =    2430.3449 (a.u.)^3
     number of atoms/cell      =           12
     number of atomic types    =            1
     number of electrons       =        36.00
     number of Kohn-Sham states=           22
     kinetic-energy cutoff     =      30.0000  Ry
     charge density cutoff     =     240.0000  Ry
     scf convergence threshold =      1.0E-04
     mixing beta               =       0.7000
     number of iterations used =            8  plain     mixing
     energy convergence thresh.=      1.0E-04
     force convergence thresh. =      1.0E-01
     Exchange-correlation= SLA  PW   PBX  PBC
                           (   1   4   3   4   0   0   0)
     nstep                     =           50


     celldm(1)=  10.823529  celldm(2)=   0.000000  celldm(3)=   0.000000
     celldm(4)=   0.000000  celldm(5)=   0.000000  celldm(6)=   0.000000

     crystal axes: (cart. coord. in units of alat)
               a(1) = (   1.000000   0.000000   0.000000 )  
               a(2) = (   0.500000   0.866025   0.000000 )  
               a(3) = (   0.000000   0.000000   2.213251 )  

     reciprocal axes: (cart. coord. in units 2 pi/alat)
               b(1) = (  1.000000 -0.577350  0.000000 )  
               b(2) = (  0.000000  1.154701  0.000000 )  
               b(3) = (  0.000000  0.000000  0.451824 )  


     PseudoPot. # 1 for Al read from file:
     /home/mini21k/QE/Potential/Al.pbe-n-kjpaw_psl.1.0.0.UPF
     MD5 check sum: cfc449ca30b5f3223ec38ddd88ac046d
     Pseudo is Projector augmented-wave + core cor, Zval =  3.0
     Generated using "atomic" code by A. Dal Corso  v.5.1
     Shape of augmentation charge: PSQ
     Using radial grid of 1135 points,  6 beta functions with: 
                l(1) =   0
                l(2) =   0
                l(3) =   1
                l(4) =   1
                l(5) =   2
                l(6) =   2
     Q(r) pseudized with 0 coefficients 


     atomic species   valence    mass     pseudopotential
        Al             3.00    26.98154     Al( 1.00)

      6 Sym. Ops. (no inversion) found



   Cartesian axes

     site n.     atom                  positions (alat units)
         1           Al  tau(   1) = (   0.2500000   0.1443376   0.0000000  )
         2           Al  tau(   2) = (   0.7500001   0.1443376   0.0000000  )
         3           Al  tau(   3) = (   0.4999999   0.5773502   0.0000000  )
         4           Al  tau(   4) = (   1.0000000   0.5773502   0.0000000  )
         5           Al  tau(   5) = (   0.0000000   0.2886752   0.4082484  )
         6           Al  tau(   6) = (   0.4999999   0.2886752   0.4082484  )
         7           Al  tau(   7) = (   0.2500000   0.7216878   0.4082484  )
         8           Al  tau(   8) = (   0.7500001   0.7216878   0.4082484  )
         9           Al  tau(   9) = (   0.0000000   0.0000000   0.8164965  )
        10           Al  tau(  10) = (   0.4999999   0.0000000   0.8164965  )
        11           Al  tau(  11) = (   0.2500000   0.4330126   0.8164965  )
        12           Al  tau(  12) = (   0.7500001   0.4330126   0.8164965  )

     number of k points=     3  Gaussian smearing, width (Ry)=  0.0030
                       cart. coord. in units 2pi/alat
        k(    1) = (   0.0000000   0.0000000   0.0000000), wk =   0.2222222
        k(    2) = (   0.0000000   0.3849002   0.0000000), wk =   1.3333333
        k(    3) = (   0.3333333  -0.5773503   0.0000000), wk =   0.4444444

     Dense  grid:   152603 G-vectors     FFT dimensions: (  54,  54, 120)

     Smooth grid:    53909 G-vectors     FFT dimensions: (  40,  40,  90)

     Estimated max dynamical RAM per process >     106.55 MB

     Estimated total dynamical RAM >     639.32 MB

     Initial potential from superposition of free atoms

     starting charge   35.97252, renormalised to   36.00000
     Starting wfcs are   48 randomized atomic wfcs
     Checking if some PAW data can be deallocated... 

     total cpu time spent up to now is        1.2 secs

     Self-consistent Calculation

     iteration #  1     ecut=    30.00 Ry     beta= 0.70
     Davidson diagonalization with overlap
     ethr =  1.00E-02,  avg # of iterations =  3.3

     total cpu time spent up to now is        2.5 secs

     total energy              =    -473.50118117 Ry
     estimated scf accuracy    <       0.55554353 Ry

     iteration #  2     ecut=    30.00 Ry     beta= 0.70
     Davidson diagonalization with overlap
     ethr =  1.54E-03,  avg # of iterations =  5.3

     total cpu time spent up to now is        3.9 secs

     total energy              =    -473.04332801 Ry
     estimated scf accuracy    <       5.79551464 Ry

     iteration #  3     ecut=    30.00 Ry     beta= 0.70
     Davidson diagonalization with overlap
     ethr =  1.54E-03,  avg # of iterations =  5.0

     total cpu time spent up to now is        5.3 secs

     total energy              =    -473.82392594 Ry
     estimated scf accuracy    <       0.02543893 Ry

     iteration #  4     ecut=    30.00 Ry     beta= 0.70
     Davidson diagonalization with overlap
     ethr =  7.07E-05,  avg # of iterations =  5.7

     total cpu time spent up to now is        6.7 secs

     total energy              =    -473.83008889 Ry
     estimated scf accuracy    <       0.01175672 Ry

     iteration #  5     ecut=    30.00 Ry     beta= 0.70
     Davidson diagonalization with overlap
     ethr =  3.27E-05,  avg # of iterations =  2.0

     total cpu time spent up to now is        7.9 secs

     total energy              =    -473.83198461 Ry
     estimated scf accuracy    <       0.00212556 Ry

     iteration #  6     ecut=    30.00 Ry     beta= 0.70
     Davidson diagonalization with overlap
     ethr =  5.90E-06,  avg # of iterations =  5.7

     total cpu time spent up to now is        9.2 secs

     total energy              =    -473.83249056 Ry
     estimated scf accuracy    <       0.00017959 Ry

     iteration #  7     ecut=    30.00 Ry     beta= 0.70
     Davidson diagonalization with overlap
     ethr =  4.99E-07,  avg # of iterations =  5.7

     total cpu time spent up to now is       10.6 secs

     End of self-consistent calculation

          k = 0.0000 0.0000 0.0000 (  6713 PWs)   bands (ev):

    -7.8602  -6.0835  -3.5228  -2.0239  -2.0239  -2.0221  -1.9586  -1.9570
    -1.9570  -0.5183  -0.5164  -0.5164  -0.3878   0.0128   0.0128   0.0141
     2.2452   2.2453   2.2466   2.4503   2.4512   2.4512

          k = 0.0000 0.3849 0.0000 (  6746 PWs)   bands (ev):

    -7.1949  -5.4233  -5.2179  -3.4633  -3.2696  -3.2695  -2.8647  -1.5401
    -1.5398  -0.9305   0.2402   0.4039   0.4039   1.1181   1.1183   2.0193
     2.3582   2.3586   2.5827   3.6390   3.8624   3.8631

          k = 0.3333-0.5774 0.0000 (  6762 PWs)   bands (ev):

    -5.8749  -5.8738  -5.8725  -4.1141  -4.1130  -4.1120  -1.5661  -1.5654
    -1.5644  -0.1367  -0.1365  -0.0147   1.1108   1.4858   1.4869   1.4877
     1.8788   1.8794   4.2577   4.2584   4.5927   4.6729

     the Fermi energy is     2.3969 ev

!    total energy              =    -473.83248280 Ry

     total all-electron energy =     -5827.545862 Ry
     estimated scf accuracy    <       0.00009102 Ry
     smearing contrib. (-TS)   =      -0.00102444 Ry
     internal energy E=F+TS    =    -473.83145836 Ry

     The total energy is F=E-TS. E is the sum of the following terms:
     one-electron contribution =     -95.00487029 Ry
     hartree contribution      =      59.60877567 Ry
     xc contribution           =     -30.42092607 Ry
     ewald contribution        =       8.13085601 Ry
     one-center paw contrib.   =    -416.14529368 Ry

     convergence has been achieved in   7 iterations

     Forces acting on atoms (cartesian axes, Ry/au):

     atom    1 type  1   force =     0.00005342    0.00003084   -0.00123127
     atom    2 type  1   force =    -0.00005342    0.00003084   -0.00123127
     atom    3 type  1   force =     0.00000000   -0.00006169   -0.00123127
     atom    4 type  1   force =     0.00000000    0.00000000   -0.00129838
     atom    5 type  1   force =     0.00000000    0.00008802    0.00003087
     atom    6 type  1   force =     0.00000000    0.00000000    0.00003159
     atom    7 type  1   force =    -0.00007623   -0.00004401    0.00003087
     atom    8 type  1   force =     0.00007623   -0.00004401    0.00003087
     atom    9 type  1   force =     0.00000000    0.00000000    0.00133243
     atom   10 type  1   force =     0.00000000   -0.00000356    0.00117852
     atom   11 type  1   force =    -0.00000309    0.00000178    0.00117852
     atom   12 type  1   force =     0.00000309    0.00000178    0.00117852

     Total force =     0.002443     Total SCF correction =     0.009194
     SCF correction compared to forces is large: reduce conv_thr to get better values

     BFGS Geometry Optimization
     Energy error            =      0.0E+00
     Gradient error          =      1.3E-03

     bfgs converged in   1 scf cycles and   0 bfgs steps
     (criteria: energy <  1.0E-04 Ry, force <  1.0E-01 Ry/Bohr)

     End of BFGS Geometry Optimization

     Final energy   =    -473.8324827996 Ry
Begin final coordinates

ATOMIC_POSITIONS (angstrom)
Al            1.4318910000        0.8267030000        0.0000000000    0   0   0
Al            4.2956740000        0.8267030000        0.0000000000    0   0   0
Al            2.8637820000        3.3068110000        0.0000000000    0   0   0
Al            5.7275650000        3.3068110000        0.0000000000    0   0   0
Al            0.0000000000        1.6534060000        2.3382690000
Al            2.8637820000        1.6534060000        2.3382690000
Al            1.4318910000        4.1335140000        2.3382690000
Al            4.2956740000        4.1335140000        2.3382690000
Al            0.0000000000        0.0000000000        4.6765370000
Al            2.8637820000        0.0000000000        4.6765370000
Al            1.4318910000        2.4801080000        4.6765370000
Al            4.2956740000        2.4801080000        4.6765370000
End final coordinates



     Writing output data file ./output/pwscf.save/

     init_run     :      1.06s CPU      1.10s WALL (       1 calls)
     electrons    :      9.05s CPU      9.42s WALL (       1 calls)
     forces       :      0.81s CPU      0.87s WALL (       1 calls)

     Called by init_run:
     wfcinit      :      0.33s CPU      0.33s WALL (       1 calls)
     potinit      :      0.34s CPU      0.34s WALL (       1 calls)
     hinit0       :      0.19s CPU      0.19s WALL (       1 calls)

     Called by electrons:
     c_bands      :      3.73s CPU      3.74s WALL (       7 calls)
     sum_band     :      2.00s CPU      2.19s WALL (       7 calls)
     v_of_rho     :      0.28s CPU      0.29s WALL (       8 calls)
     newd         :      1.46s CPU      1.65s WALL (       8 calls)
     PAW_pot      :      1.96s CPU      1.96s WALL (       8 calls)
     mix_rho      :      0.03s CPU      0.04s WALL (       7 calls)

     Called by c_bands:
     init_us_2    :      0.07s CPU      0.07s WALL (      48 calls)
     cegterg      :      3.49s CPU      3.50s WALL (      21 calls)

     Called by *egterg:
     cdiaghg      :      0.09s CPU      0.09s WALL (     119 calls)
     h_psi        :      2.20s CPU      2.21s WALL (     122 calls)
     s_psi        :      0.56s CPU      0.56s WALL (     122 calls)
     g_psi        :      0.01s CPU      0.01s WALL (      98 calls)

     Called by h_psi:
     h_psi:calbec :      0.81s CPU      0.81s WALL (     122 calls)
     vloc_psi     :      0.81s CPU      0.82s WALL (     122 calls)
     add_vuspsi   :      0.58s CPU      0.58s WALL (     122 calls)

     General routines
     calbec       :      1.17s CPU      1.18s WALL (     155 calls)
     fft          :      0.20s CPU      0.20s WALL (     113 calls)
     ffts         :      0.01s CPU      0.01s WALL (      15 calls)
     fftw         :      0.83s CPU      0.84s WALL (    3596 calls)
     interpolate  :      0.02s CPU      0.02s WALL (       8 calls)

     Parallel routines
     fft_scatt_xy :      0.10s CPU      0.11s WALL (    3724 calls)
     fft_scatt_yz :      0.46s CPU      0.46s WALL (    3724 calls)

     PWSCF        :     11.02s CPU     11.50s WALL


   This run was terminated on:  18:22:52  12Jun2023            

=------------------------------------------------------------------------------=
   JOB DONE.
=------------------------------------------------------------------------------=
