
     Program PWSCF v.7.1 starts on 17Jun2023 at 11:11:46 

     This program is part of the open-source Quantum ESPRESSO suite
     for quantum simulation of materials; please cite
         "P. Giannozzi et al., J. Phys.:Condens. Matter 21 395502 (2009);
         "P. Giannozzi et al., J. Phys.:Condens. Matter 29 465901 (2017);
         "P. Giannozzi et al., J. Chem. Phys. 152 154105 (2020);
          URL http://www.quantum-espresso.org", 
     in publications or presentations arising from this work. More details at
     http://www.quantum-espresso.org/quote

     Parallel version (MPI), running on    24 processors

     MPI processes distributed on     1 nodes
     77030 MiB available memory on the printing compute node when the environment starts
 
     Waiting for input...
     Reading input from standard input

     Current dimensions of program PWSCF are:
     Max number of different atomic species (ntypx) = 10
     Max number of k-points (npk) =  40000
     Max angular momentum in pseudopotentials (lmaxx) =  4
     file Al.pbe-n-kjpaw_psl.1.0.0.UPF: wavefunction(s)  3S 3P renormalized
     Found identity + ( -0.5000  0.0000  0.0000) symmetry
     This is a supercell, fractional translations are disabled
     Message from routine setup:
     using ibrav=0 with symmetry is DISCOURAGED, use correct ibrav instead
 
     R & G space division:  proc/nbgrp/npool/nimage =      24
     Subspace diagonalization in iterative solution of the eigenvalue problem:
     a serial algorithm will be used

 
     Parallelization info
     --------------------
     sticks:   dense  smooth     PW     G-vecs:    dense   smooth      PW
     Min          81      53     15                 7361     3997     601
     Max          82      54     16                 7370     4010     610
     Sum        1945    1285    367               176729    96075   14513
 
     Using Slab Decomposition
 


     bravais-lattice index     =            0
     lattice parameter (alat)  =      10.8235  a.u.
     unit-cell volume          =    2813.7848 (a.u.)^3
     number of atoms/cell      =           12
     number of atomic types    =            1
     number of electrons       =        36.00
     number of Kohn-Sham states=           22
     kinetic-energy cutoff     =      40.0000  Ry
     charge density cutoff     =     240.0000  Ry
     scf convergence threshold =      1.0E-07
     mixing beta               =       0.7000
     number of iterations used =            8  plain     mixing
     energy convergence thresh.=      1.0E-04
     force convergence thresh. =      7.0E-04
     Exchange-correlation= SLA  PW   PBX  PBC
                           (   1   4   3   4   0   0   0)
     nstep                     =           50


     celldm(1)=  10.823529  celldm(2)=   0.000000  celldm(3)=   0.000000
     celldm(4)=   0.000000  celldm(5)=   0.000000  celldm(6)=   0.000000

     crystal axes: (cart. coord. in units of alat)
               a(1) = (   1.000000   0.000000   0.000000 )  
               a(2) = (   0.500000   0.866025   0.000000 )  
               a(3) = (   0.000000   0.000000   2.562439 )  

     reciprocal axes: (cart. coord. in units 2 pi/alat)
               b(1) = (  1.000000 -0.577350  0.000000 )  
               b(2) = (  0.000000  1.154701  0.000000 )  
               b(3) = (  0.000000  0.000000  0.390253 )  


     PseudoPot. # 1 for Al read from file:
     /home/yyj/SSSP_1.3.0_PBE_efficiency/Al.pbe-n-kjpaw_psl.1.0.0.UPF
     MD5 check sum: cfc449ca30b5f3223ec38ddd88ac046d
     Pseudo is Projector augmented-wave + core cor, Zval =  3.0
     Generated using "atomic" code by A. Dal Corso  v.5.1
     Shape of augmentation charge: PSQ
     Using radial grid of 1135 points,  6 beta functions with: 
                l(1) =   0
                l(2) =   0
                l(3) =   1
                l(4) =   1
                l(5) =   2
                l(6) =   2
     Q(r) pseudized with 0 coefficients 


     atomic species   valence    mass     pseudopotential
        Al             3.00    26.98154     Al( 1.00)

      6 Sym. Ops. (no inversion) found



   Cartesian axes

     site n.     atom                  positions (alat units)
         1           Al  tau(   1) = (   0.2500000   0.1443376   0.0000000  )
         2           Al  tau(   2) = (   0.7500001   0.1443376   0.0000000  )
         3           Al  tau(   3) = (   0.4999999   0.5773502   0.0000000  )
         4           Al  tau(   4) = (   1.0000000   0.5773502   0.0000000  )
         5           Al  tau(   5) = (   0.0000000   0.2886752   0.4082484  )
         6           Al  tau(   6) = (   0.4999999   0.2886752   0.4082484  )
         7           Al  tau(   7) = (   0.2500000   0.7216878   0.4082484  )
         8           Al  tau(   8) = (   0.7500001   0.7216878   0.4082484  )
         9           Al  tau(   9) = (   0.0000000   0.0000000   0.8164965  )
        10           Al  tau(  10) = (   0.4999999   0.0000000   0.8164965  )
        11           Al  tau(  11) = (   0.2500000   0.4330126   0.8164965  )
        12           Al  tau(  12) = (   0.7500001   0.4330126   0.8164965  )

     number of k points=    12  Gaussian smearing, width (Ry)=  0.0030
                       cart. coord. in units 2pi/alat
        k(    1) = (   0.0000000   0.0000000   0.0000000), wk =   0.0246914
        k(    2) = (   0.0000000   0.1283001   0.0000000), wk =   0.1481481
        k(    3) = (   0.0000000   0.2566001   0.0000000), wk =   0.1481481
        k(    4) = (   0.0000000   0.3849002   0.0000000), wk =   0.1481481
        k(    5) = (   0.0000000   0.5132002   0.0000000), wk =   0.1481481
        k(    6) = (   0.1111111   0.1924501   0.0000000), wk =   0.1481481
        k(    7) = (   0.1111111   0.3207501   0.0000000), wk =   0.2962963
        k(    8) = (   0.1111111   0.4490502   0.0000000), wk =   0.2962963
        k(    9) = (   0.1111111  -0.5773503   0.0000000), wk =   0.1481481
        k(   10) = (   0.2222222   0.3849002   0.0000000), wk =   0.1481481
        k(   11) = (   0.2222222  -0.6415003   0.0000000), wk =   0.2962963
        k(   12) = (   0.3333333  -0.5773503   0.0000000), wk =   0.0493827

     Dense  grid:   176729 G-vectors     FFT dimensions: (  54,  54, 144)

     Smooth grid:    96075 G-vectors     FFT dimensions: (  45,  45, 120)

     Estimated max dynamical RAM per process >      34.14 MB

     Estimated total dynamical RAM >     819.34 MB

     Initial potential from superposition of free atoms

     starting charge      35.9725, renormalised to      36.0000
     Starting wfcs are   48 randomized atomic wfcs
     Checking if some PAW data can be deallocated... 

     total cpu time spent up to now is        0.7 secs

     Self-consistent Calculation

     iteration #  1     ecut=    40.00 Ry     beta= 0.70
     Davidson diagonalization with overlap
     ethr =  1.00E-02,  avg # of iterations =  3.3

     total cpu time spent up to now is        1.6 secs

     total energy              =    -473.43859187 Ry
     estimated scf accuracy    <       0.59948288 Ry

     iteration #  2     ecut=    40.00 Ry     beta= 0.70
     Davidson diagonalization with overlap
     ethr =  1.67E-03,  avg # of iterations =  5.5

     total cpu time spent up to now is        2.6 secs

     total energy              =    -472.85657831 Ry
     estimated scf accuracy    <       7.43107507 Ry

     iteration #  3     ecut=    40.00 Ry     beta= 0.70
     Davidson diagonalization with overlap
     ethr =  1.67E-03,  avg # of iterations =  4.8

     total cpu time spent up to now is        3.5 secs

     total energy              =    -473.81205705 Ry
     estimated scf accuracy    <       0.01652954 Ry

     iteration #  4     ecut=    40.00 Ry     beta= 0.70
     Davidson diagonalization with overlap
     ethr =  4.59E-05,  avg # of iterations =  6.9

     total cpu time spent up to now is        4.5 secs

     total energy              =    -473.82070424 Ry
     estimated scf accuracy    <       0.05086156 Ry

     iteration #  5     ecut=    40.00 Ry     beta= 0.70
     Davidson diagonalization with overlap
     ethr =  4.59E-05,  avg # of iterations =  3.8

     total cpu time spent up to now is        5.3 secs

     total energy              =    -473.81858477 Ry
     estimated scf accuracy    <       0.06611987 Ry

     iteration #  6     ecut=    40.00 Ry     beta= 0.70
     Davidson diagonalization with overlap
     ethr =  4.59E-05,  avg # of iterations =  2.4

     total cpu time spent up to now is        6.1 secs

     total energy              =    -473.82348371 Ry
     estimated scf accuracy    <       0.00085133 Ry

     iteration #  7     ecut=    40.00 Ry     beta= 0.70
     Davidson diagonalization with overlap
     c_bands:  1 eigenvalues not converged
     c_bands:  1 eigenvalues not converged
     ethr =  2.36E-06,  avg # of iterations =  9.5

     negative rho (up, down):  7.624E-08 0.000E+00

     total cpu time spent up to now is        7.1 secs

     total energy              =    -473.82383726 Ry
     estimated scf accuracy    <       0.00019413 Ry

     iteration #  8     ecut=    40.00 Ry     beta= 0.70
     Davidson diagonalization with overlap
     ethr =  5.39E-07,  avg # of iterations =  2.5

     negative rho (up, down):  8.391E-07 0.000E+00

     total cpu time spent up to now is        7.9 secs

     total energy              =    -473.82387083 Ry
     estimated scf accuracy    <       0.00003499 Ry

     iteration #  9     ecut=    40.00 Ry     beta= 0.70
     Davidson diagonalization with overlap
     ethr =  9.72E-08,  avg # of iterations =  3.6

     negative rho (up, down):  6.124E-07 0.000E+00

     total cpu time spent up to now is        8.7 secs

     total energy              =    -473.82387397 Ry
     estimated scf accuracy    <       0.00001370 Ry

     iteration # 10     ecut=    40.00 Ry     beta= 0.70
     Davidson diagonalization with overlap
     ethr =  3.80E-08,  avg # of iterations =  3.8

     negative rho (up, down):  5.478E-07 0.000E+00

     total cpu time spent up to now is        9.5 secs

     total energy              =    -473.82387574 Ry
     estimated scf accuracy    <       0.00000018 Ry

     iteration # 11     ecut=    40.00 Ry     beta= 0.70
     Davidson diagonalization with overlap
     ethr =  5.11E-10,  avg # of iterations =  7.9

     negative rho (up, down):  5.491E-07 0.000E+00

     total cpu time spent up to now is       10.5 secs

     total energy              =    -473.82387632 Ry
     estimated scf accuracy    <       0.00000082 Ry

     iteration # 12     ecut=    40.00 Ry     beta= 0.70
     Davidson diagonalization with overlap
     ethr =  5.11E-10,  avg # of iterations =  2.0

     negative rho (up, down):  5.728E-07 0.000E+00

     total cpu time spent up to now is       11.3 secs

     End of self-consistent calculation

          k = 0.0000 0.0000 0.0000 ( 11947 PWs)   bands (ev):

    -8.7418  -7.0546  -4.4389  -2.8891  -2.8891  -2.8891  -2.8533  -2.8532
    -2.8532  -1.4860  -1.4860  -1.4859  -1.3153  -0.9595  -0.9595  -0.9595
     1.3185   1.3185   1.3185   1.5420   1.5420   1.5420

          k = 0.0000 0.1283 0.0000 ( 11973 PWs)   bands (ev):

    -8.6677  -6.9811  -4.3656  -4.0794  -3.4376  -3.4376  -2.4459  -2.1702
    -2.1702  -1.8355  -1.8355  -1.5562  -1.2454  -0.4882  -0.4882  -0.0620
     0.4693   0.8929   0.8929   2.1128   2.1128   2.2365

          k = 0.0000 0.2566 0.0000 ( 11997 PWs)   bands (ev):

    -8.4457  -6.7607  -5.1573  -4.1459  -3.8647  -3.8647  -3.5028  -2.2344
    -2.2344  -1.3466  -1.3466  -1.0359  -0.9948   0.0450   0.1432   0.1432
     0.6751   0.6751   1.6351   2.1517   2.4447   2.8594

          k = 0.0000 0.3849 0.0000 ( 12015 PWs)   bands (ev):

    -8.0764  -6.3943  -6.0992  -4.4339  -4.1504  -4.1504  -3.7810  -2.5103
    -2.5103  -1.8468  -0.6872  -0.4821  -0.4821   0.2025   0.2025   1.1004
     1.3905   1.3905   1.6917   2.7861   2.9455   2.9459

          k = 0.0000 0.5132 0.0000 ( 12028 PWs)   bands (ev):

    -7.5611  -6.9013  -5.8830  -5.2287  -4.2936  -4.2936  -3.2729  -2.6498
    -2.6498  -2.6254  -0.2005  -0.1833  -0.1833   0.4199   0.8619   0.8619
     2.0227   2.0227   2.4157   2.4157   3.0446   3.0460

          k = 0.1111 0.1925 0.0000 ( 11985 PWs)   bands (ev):

    -8.5197  -6.8341  -4.5811  -4.5811  -4.2190  -2.9353  -2.9353  -2.6784
    -2.6387  -1.2804  -1.1057  -0.8945  -0.8945  -0.7457  -0.2082  -0.2082
     0.9864   0.9864   1.5182   1.7252   2.3755   2.6666

          k = 0.1111 0.3208 0.0000 ( 12006 PWs)   bands (ev):

    -8.2240  -6.5407  -5.5912  -4.9409  -3.9312  -3.9267  -3.2887  -3.0109
    -1.7480  -1.4180  -1.3651  -0.8266  -0.7878  -0.0707   0.2540   0.7957
     1.2748   1.7350   1.8370   2.3538   2.3923   2.4834

          k = 0.1111 0.4491 0.0000 ( 12024 PWs)   bands (ev):

    -7.7817  -6.4632  -6.1019  -5.1572  -4.7945  -3.5018  -3.4902  -3.2229
    -2.1981  -1.6043  -0.9480  -0.7204  -0.4088   0.7331   0.8242   1.1933
     1.2047   1.8975   2.1339   2.4819   2.8753   3.0516

          k = 0.1111-0.5774 0.0000 ( 12045 PWs)   bands (ev):

    -7.1942  -7.1942  -5.5191  -5.5191  -5.2294  -3.5730  -3.2937  -2.9123
    -2.9123  -1.6699  -1.0097   0.1457   0.1457   0.2707   0.4482   1.1616
     1.8379   1.8910   2.4660   2.5566   2.6091   3.4754

          k = 0.2222 0.3849 0.0000 ( 12033 PWs)   bands (ev):

    -7.8553  -6.1749  -5.8812  -5.8812  -4.2180  -4.2180  -3.5628  -2.0477
    -1.9991  -1.6351  -1.6351  -0.6702  -0.4783  -0.1108   1.3035   1.3035
     1.5208   1.8997   1.8997   2.0379   2.7141   2.9879

          k = 0.2222-0.6415 0.0000 ( 12031 PWs)   bands (ev):

    -7.3408  -6.6821  -6.0265  -5.6645  -5.0113  -4.3617  -3.0562  -2.4107
    -2.1628  -1.7729  -0.9104  -0.6000   0.0078   0.3066   0.6269   0.7424
     1.2322   1.7616   2.5655   2.8913   3.3774   3.5278

          k = 0.3333-0.5774 0.0000 ( 12015 PWs)   bands (ev):

    -6.7551  -6.7551  -6.7551  -5.0837  -5.0837  -5.0837  -2.4819  -2.4819
    -2.4818  -1.0011  -1.0011  -0.9269   0.1443   0.5597   0.5597   0.5597
     0.9054   0.9055   3.3302   3.3303   3.6906   3.8047

     the Fermi energy is     1.8321 ev

!    total energy              =    -473.82387628 Ry
     total all-electron energy =     -5827.537255 Ry
     estimated scf accuracy    <       0.00000008 Ry
     smearing contrib. (-TS)   =      -0.00043475 Ry
     internal energy E=F+TS    =    -473.82344153 Ry

     The total energy is F=E-TS. E is the sum of the following terms:
     one-electron contribution =    -170.02211626 Ry
     hartree contribution      =      95.94098758 Ry
     xc contribution           =     -30.40835863 Ry
     ewald contribution        =      46.80299174 Ry
     one-center paw contrib.   =    -416.13694595 Ry

     convergence has been achieved in  12 iterations

     negative rho (up, down):  5.728E-07 0.000E+00

     Forces acting on atoms (cartesian axes, Ry/au):

     atom    1 type  1   force =     0.00000048    0.00000027   -0.00085881
     atom    2 type  1   force =    -0.00000048    0.00000027   -0.00085881
     atom    3 type  1   force =    -0.00000000   -0.00000055   -0.00085881
     atom    4 type  1   force =     0.00000000    0.00000000   -0.00085925
     atom    5 type  1   force =     0.00000000    0.00000001    0.00000883
     atom    6 type  1   force =     0.00000000    0.00000000    0.00000833
     atom    7 type  1   force =    -0.00000001   -0.00000001    0.00000883
     atom    8 type  1   force =     0.00000001   -0.00000001    0.00000883
     atom    9 type  1   force =     0.00000000   -0.00000000    0.00084979
     atom   10 type  1   force =    -0.00000000   -0.00000033    0.00085036
     atom   11 type  1   force =    -0.00000029    0.00000016    0.00085036
     atom   12 type  1   force =     0.00000029    0.00000016    0.00085036

     Total force =     0.001701     Total SCF correction =     0.000365
     SCF correction compared to forces is large: reduce conv_thr to get better values

     BFGS Geometry Optimization
     Energy error            =      0.0E+00 Ry
     Gradient error          =      8.5E-04 Ry/Bohr

     number of scf cycles    =   1
     number of bfgs steps    =   0

     energy             new  =    -473.8238762766 Ry

     new trust radius        =       0.0008503634 bohr
     new conv_thr            =       0.0000001000 Ry


ATOMIC_POSITIONS (angstrom)
Al            1.4318910000        0.8267030000        0.0000000000    0   0   0
Al            4.2956740000        0.8267030000        0.0000000000    0   0   0
Al            2.8637820000        3.3068110000        0.0000000000    0   0   0
Al            5.7275650000        3.3068110000        0.0000000000    0   0   0
Al            0.0000000000        1.6534060078        2.3382736716
Al            2.8637820000        1.6534060000        2.3382734057
Al            1.4318909932        4.1335139961        2.3382736716
Al            4.2956740068        4.1335139961        2.3382736716
Al           -0.0000000000       -0.0000000000        4.6769866906
Al            2.8637820000       -0.0000001746        4.6769869929
Al            1.4318908488        2.4801080873        4.6769869929
Al            4.2956741512        2.4801080873        4.6769869929



     Writing config-only to output data dir ./output/pwscf.save/
     NEW-OLD atomic charge density approx. for the potential

     negative rho (up, down):  5.519E-07 0.000E+00

     total cpu time spent up to now is       12.1 secs

     Self-consistent Calculation

     iteration #  1     ecut=    40.00 Ry     beta= 0.70
     Davidson diagonalization with overlap
     ethr =  1.00E-06,  avg # of iterations =  2.0

     Threshold (ethr) on eigenvalues was too large:
     Diagonalizing with lowered threshold

     Davidson diagonalization with overlap
     ethr =  3.12E-08,  avg # of iterations =  1.2

     negative rho (up, down):  5.672E-07 0.000E+00

     total cpu time spent up to now is       13.4 secs

     total energy              =    -473.82386907 Ry
     estimated scf accuracy    <       0.00001254 Ry

     iteration #  2     ecut=    40.00 Ry     beta= 0.70
     Davidson diagonalization with overlap
     ethr =  3.48E-08,  avg # of iterations =  6.9

     negative rho (up, down):  5.673E-07 0.000E+00

     total cpu time spent up to now is       14.3 secs

     total energy              =    -473.82380708 Ry
     estimated scf accuracy    <       0.00123701 Ry

     iteration #  3     ecut=    40.00 Ry     beta= 0.70
     Davidson diagonalization with overlap
     ethr =  3.48E-08,  avg # of iterations =  6.7

     negative rho (up, down):  5.731E-07 0.000E+00

     total cpu time spent up to now is       15.2 secs

     End of self-consistent calculation

          k = 0.0000 0.0000 0.0000 ( 11947 PWs)   bands (ev):

    -8.7409  -7.0541  -4.4391  -2.8881  -2.8881  -2.8881  -2.8523  -2.8523
    -2.8523  -1.4854  -1.4853  -1.4853  -1.3153  -0.9590  -0.9590  -0.9590
     1.3184   1.3184   1.3184   1.5419   1.5419   1.5419

          k = 0.0000 0.1283 0.0000 ( 11973 PWs)   bands (ev):

    -8.6668  -6.9806  -4.3657  -4.0784  -3.4367  -3.4367  -2.4453  -2.1692
    -2.1692  -1.8349  -1.8349  -1.5553  -1.2454  -0.4877  -0.4877  -0.0617
     0.4694   0.8928   0.8928   2.1127   2.1127   2.2360

          k = 0.0000 0.2566 0.0000 ( 11997 PWs)   bands (ev):

    -8.4447  -6.7602  -5.1564  -4.1460  -3.8637  -3.8637  -3.5022  -2.2338
    -2.2338  -1.3457  -1.3457  -1.0359  -0.9948   0.0458   0.1435   0.1435
     0.6752   0.6752   1.6357   2.1518   2.4442   2.8593

          k = 0.0000 0.3849 0.0000 ( 12015 PWs)   bands (ev):

    -8.0755  -6.3937  -6.0983  -4.4334  -4.1495  -4.1495  -3.7811  -2.5097
    -2.5097  -1.8470  -0.6872  -0.4814  -0.4814   0.2027   0.2027   1.1006
     1.3910   1.3910   1.6924   2.7856   2.9458   2.9458

          k = 0.0000 0.5132 0.0000 ( 12028 PWs)   bands (ev):

    -7.5601  -6.9004  -5.8825  -5.2282  -4.2926  -4.2926  -3.2731  -2.6492
    -2.6492  -2.6255  -0.2005  -0.1833  -0.1833   0.4200   0.8628   0.8628
     2.0236   2.0236   2.4163   2.4163   3.0447   3.0453

          k = 0.1111 0.1925 0.0000 ( 11985 PWs)   bands (ev):

    -8.5187  -6.8336  -4.5802  -4.5802  -4.2192  -2.9347  -2.9347  -2.6775
    -2.6377  -1.2798  -1.1057  -0.8937  -0.8937  -0.7452  -0.2081  -0.2081
     0.9869   0.9869   1.5180   1.7251   2.3750   2.6666

          k = 0.1111 0.3208 0.0000 ( 12006 PWs)   bands (ev):

    -8.2231  -6.5402  -5.5902  -4.9399  -3.9307  -3.9269  -3.2881  -3.0099
    -1.7470  -1.4174  -1.3652  -0.8266  -0.7878  -0.0702   0.2548   0.7966
     1.2747   1.7351   1.8375   2.3539   2.3924   2.4835

          k = 0.1111 0.4491 0.0000 ( 12024 PWs)   bands (ev):

    -7.7808  -6.4623  -6.1013  -5.1562  -4.7939  -3.5013  -3.4904  -3.2219
    -2.1982  -1.6037  -0.9481  -0.7195  -0.4088   0.7334   0.8243   1.1936
     1.2056   1.8982   2.1340   2.4828   2.8759   3.0510

          k = 0.1111-0.5774 0.0000 ( 12045 PWs)   bands (ev):

    -7.1932  -7.1932  -5.5185  -5.5185  -5.2284  -3.5725  -3.2927  -2.9124
    -2.9124  -1.6693  -1.0098   0.1457   0.1457   0.2714   0.4492   1.1618
     1.8382   1.8916   2.4670   2.5573   2.6095   3.4752

          k = 0.2222 0.3849 0.0000 ( 12033 PWs)   bands (ev):

    -7.8544  -6.1744  -5.8803  -5.8803  -4.2175  -4.2175  -3.5629  -2.0467
    -1.9981  -1.6352  -1.6352  -0.6696  -0.4783  -0.1103   1.3037   1.3037
     1.5216   1.9005   1.9005   2.0379   2.7141   2.9875

          k = 0.2222-0.6415 0.0000 ( 12031 PWs)   bands (ev):

    -7.3399  -6.6811  -6.0255  -5.6640  -5.0108  -4.3612  -3.0563  -2.4108
    -2.1618  -1.7730  -0.9094  -0.5994   0.0078   0.3076   0.6269   0.7429
     1.2323   1.7619   2.5656   2.8922   3.3779   3.5272

          k = 0.3333-0.5774 0.0000 ( 12015 PWs)   bands (ev):

    -6.7542  -6.7542  -6.7542  -5.0832  -5.0832  -5.0832  -2.4820  -2.4820
    -2.4820  -1.0002  -1.0000  -0.9260   0.1450   0.5597   0.5597   0.5597
     0.9059   0.9060   3.3300   3.3302   3.6904   3.8047

     the Fermi energy is     1.8325 ev

!    total energy              =    -473.82387888 Ry
     total all-electron energy =     -5827.537258 Ry
     estimated scf accuracy    <       0.00000007 Ry
     smearing contrib. (-TS)   =      -0.00043363 Ry
     internal energy E=F+TS    =    -473.82344525 Ry

     The total energy is F=E-TS. E is the sum of the following terms:
     one-electron contribution =    -169.98979066 Ry
     hartree contribution      =      95.92385142 Ry
     xc contribution           =     -30.40791397 Ry
     ewald contribution        =      46.78727856 Ry
     one-center paw contrib.   =    -416.13687060 Ry

     convergence has been achieved in   3 iterations

     negative rho (up, down):  5.731E-07 0.000E+00

     Forces acting on atoms (cartesian axes, Ry/au):

     atom    1 type  1   force =    -0.00000077   -0.00000045   -0.00086354
     atom    2 type  1   force =     0.00000077   -0.00000045   -0.00086354
     atom    3 type  1   force =     0.00000000    0.00000089   -0.00086354
     atom    4 type  1   force =     0.00000000    0.00000000   -0.00086173
     atom    5 type  1   force =    -0.00000000    0.00000034    0.00006537
     atom    6 type  1   force =     0.00000000    0.00000000    0.00006351
     atom    7 type  1   force =    -0.00000029   -0.00000017    0.00006537
     atom    8 type  1   force =     0.00000029   -0.00000017    0.00006537
     atom    9 type  1   force =     0.00000000   -0.00000000    0.00080061
     atom   10 type  1   force =    -0.00000000   -0.00000008    0.00079737
     atom   11 type  1   force =    -0.00000007    0.00000004    0.00079737
     atom   12 type  1   force =     0.00000007    0.00000004    0.00079737

     Total force =     0.001602     Total SCF correction =     0.000336
     SCF correction compared to forces is large: reduce conv_thr to get better values
     Energy error            =      2.6E-06 Ry
     Gradient error          =      8.0E-04 Ry/Bohr

     number of scf cycles    =   2
     number of bfgs steps    =   1

     energy             old  =    -473.8238762766 Ry
     energy             new  =    -473.8238788846 Ry

     CASE: energy            _new < energy            _old


     WARNING: bfgs curvature condition failed, Theta= 0.852
     new trust radius        =       0.0009353997 bohr
     new conv_thr            =       0.0000000010 Ry


ATOMIC_POSITIONS (angstrom)
Al            1.4318910000        0.8267030000        0.0000000000    0   0   0
Al            4.2956740000        0.8267030000        0.0000000000    0   0   0
Al            2.8637820000        3.3068110000        0.0000000000    0   0   0
Al            5.7275650000        3.3068110000        0.0000000000    0   0   0
Al           -0.0000000000        1.6534061407        2.3383008520
Al            2.8637820000        1.6534060000        2.3382997577
Al            1.4318908781        4.1335139296        2.3383008520
Al            4.2956741219        4.1335139296        2.3383008520
Al           -0.0000000000       -0.0000000000        4.6774816828
Al            2.8637820000       -0.0000002763        4.6774808561
Al            1.4318907607        2.4801081382        4.6774808561
Al            4.2956742393        2.4801081382        4.6774808561



     Writing config-only to output data dir ./output/pwscf.save/
     NEW-OLD atomic charge density approx. for the potential

     negative rho (up, down):  5.502E-07 0.000E+00

     total cpu time spent up to now is       15.8 secs

     Self-consistent Calculation

     iteration #  1     ecut=    40.00 Ry     beta= 0.70
     Davidson diagonalization with overlap
     ethr =  1.00E-06,  avg # of iterations =  2.0

     Threshold (ethr) on eigenvalues was too large:
     Diagonalizing with lowered threshold

     Davidson diagonalization with overlap
     ethr =  1.46E-08,  avg # of iterations =  2.2

     negative rho (up, down):  5.676E-07 0.000E+00

     total cpu time spent up to now is       17.2 secs

     total energy              =    -473.82387685 Ry
     estimated scf accuracy    <       0.00000653 Ry

     iteration #  2     ecut=    40.00 Ry     beta= 0.70
     Davidson diagonalization with overlap
     ethr =  1.81E-08,  avg # of iterations =  6.5

     negative rho (up, down):  5.673E-07 0.000E+00

     total cpu time spent up to now is       18.1 secs

     total energy              =    -473.82384747 Ry
     estimated scf accuracy    <       0.00056001 Ry

     iteration #  3     ecut=    40.00 Ry     beta= 0.70
     Davidson diagonalization with overlap
     ethr =  1.81E-08,  avg # of iterations =  6.8

     negative rho (up, down):  5.679E-07 0.000E+00

     total cpu time spent up to now is       19.0 secs

     total energy              =    -473.82388159 Ry
     estimated scf accuracy    <       0.00000449 Ry

     iteration #  4     ecut=    40.00 Ry     beta= 0.70
     Davidson diagonalization with overlap
     ethr =  1.25E-08,  avg # of iterations =  2.0

     negative rho (up, down):  5.704E-07 0.000E+00

     total cpu time spent up to now is       19.8 secs

     total energy              =    -473.82388198 Ry
     estimated scf accuracy    <       0.00000048 Ry

     iteration #  5     ecut=    40.00 Ry     beta= 0.70
     Davidson diagonalization with overlap
     ethr =  1.35E-09,  avg # of iterations =  4.0

     negative rho (up, down):  5.725E-07 0.000E+00

     total cpu time spent up to now is       20.6 secs

     total energy              =    -473.82388205 Ry
     estimated scf accuracy    <       0.00000008 Ry

     iteration #  6     ecut=    40.00 Ry     beta= 0.70
     Davidson diagonalization with overlap
     ethr =  2.18E-10,  avg # of iterations =  4.3

     negative rho (up, down):  5.736E-07 0.000E+00

     total cpu time spent up to now is       21.4 secs

     total energy              =    -473.82388207 Ry
     estimated scf accuracy    <       0.00000002 Ry

     iteration #  7     ecut=    40.00 Ry     beta= 0.70
     Davidson diagonalization with overlap
     ethr =  5.93E-11,  avg # of iterations =  2.2

     negative rho (up, down):  5.736E-07 0.000E+00

     total cpu time spent up to now is       22.2 secs

     total energy              =    -473.82388207 Ry
     estimated scf accuracy    <          6.4E-09 Ry

     iteration #  8     ecut=    40.00 Ry     beta= 0.70
     Davidson diagonalization with overlap
     ethr =  1.77E-11,  avg # of iterations =  3.8

     negative rho (up, down):  5.740E-07 0.000E+00

     total cpu time spent up to now is       23.0 secs

     End of self-consistent calculation

          k = 0.0000 0.0000 0.0000 ( 11947 PWs)   bands (ev):

    -8.7403  -7.0539  -4.4394  -2.8875  -2.8875  -2.8875  -2.8517  -2.8517
    -2.8517  -1.4851  -1.4851  -1.4851  -1.3155  -0.9588  -0.9588  -0.9588
     1.3180   1.3180   1.3180   1.5415   1.5415   1.5415

          k = 0.0000 0.1283 0.0000 ( 11973 PWs)   bands (ev):

    -8.6662  -6.9803  -4.3661  -4.0778  -3.4361  -3.4361  -2.4451  -2.1686
    -2.1686  -1.8347  -1.8347  -1.5547  -1.2456  -0.4875  -0.4875  -0.0617
     0.4693   0.8925   0.8925   2.1124   2.1124   2.2353

          k = 0.0000 0.2566 0.0000 ( 11997 PWs)   bands (ev):

    -8.4442  -6.7600  -5.1558  -4.1464  -3.8631  -3.8631  -3.5020  -2.2336
    -2.2336  -1.3451  -1.3451  -1.0361  -0.9950   0.0463   0.1435   0.1435
     0.6751   0.6751   1.6359   2.1516   2.4436   2.8591

          k = 0.0000 0.3849 0.0000 ( 12015 PWs)   bands (ev):

    -8.0749  -6.3935  -6.0977  -4.4332  -4.1489  -4.1489  -3.7815  -2.5095
    -2.5095  -1.8473  -0.6874  -0.4810  -0.4810   0.2025   0.2025   1.1005
     1.3912   1.3912   1.6929   2.7849   2.9458   2.9458

          k = 0.0000 0.5132 0.0000 ( 12028 PWs)   bands (ev):

    -7.5596  -6.8998  -5.8822  -5.2279  -4.2921  -4.2921  -3.2734  -2.6490
    -2.6490  -2.6259  -0.2007  -0.1835  -0.1835   0.4198   0.8633   0.8633
     2.0241   2.0241   2.4165   2.4165   3.0446   3.0449

          k = 0.1111 0.1925 0.0000 ( 11985 PWs)   bands (ev):

    -8.5181  -6.8334  -4.5796  -4.5796  -4.2196  -2.9345  -2.9345  -2.6769
    -2.6371  -1.2795  -1.1059  -0.8933  -0.8933  -0.7450  -0.2083  -0.2083
     0.9871   0.9871   1.5177   1.7248   2.3744   2.6665

          k = 0.1111 0.3208 0.0000 ( 12006 PWs)   bands (ev):

    -8.2225  -6.5400  -5.5897  -4.9393  -3.9304  -3.9272  -3.2879  -3.0093
    -1.7464  -1.4172  -1.3655  -0.8268  -0.7881  -0.0700   0.2553   0.7971
     1.2744   1.7350   1.8377   2.3537   2.3922   2.4836

          k = 0.1111 0.4491 0.0000 ( 12024 PWs)   bands (ev):

    -7.7802  -6.4617  -6.1011  -5.1557  -4.7937  -3.5010  -3.4907  -3.2213
    -2.1985  -1.6034  -0.9484  -0.7189  -0.4090   0.7334   0.8241   1.1937
     1.2062   1.8986   2.1339   2.4833   2.8761   3.0504

          k = 0.1111-0.5774 0.0000 ( 12045 PWs)   bands (ev):

    -7.1927  -7.1927  -5.5183  -5.5183  -5.2278  -3.5722  -3.2922  -2.9128
    -2.9128  -1.6690  -1.0102   0.1455   0.1455   0.2718   0.4498   1.1618
     1.8383   1.8919   2.4675   2.5577   2.6096   3.4748

          k = 0.2222 0.3849 0.0000 ( 12033 PWs)   bands (ev):

    -7.8538  -6.1741  -5.8797  -5.8797  -4.2172  -4.2172  -3.5633  -2.0461
    -1.9975  -1.6355  -1.6355  -0.6693  -0.4785  -0.1101   1.3037   1.3037
     1.5220   1.9009   1.9009   2.0376   2.7138   2.9868

          k = 0.2222-0.6415 0.0000 ( 12031 PWs)   bands (ev):

    -7.3393  -6.6806  -6.0249  -5.6637  -5.0106  -4.3610  -3.0567  -2.4112
    -2.1612  -1.7734  -0.9088  -0.5991   0.0076   0.3081   0.6267   0.7431
     1.2321   1.7620   2.5654   2.8928   3.3782   3.5255

          k = 0.3333-0.5774 0.0000 ( 12015 PWs)   bands (ev):

    -6.7536  -6.7536  -6.7536  -5.0830  -5.0830  -5.0830  -2.4823  -2.4823
    -2.4823  -0.9997  -0.9993  -0.9254   0.1453   0.5595   0.5595   0.5595
     0.9060   0.9062   3.3297   3.3299   3.6899   3.8044

     the Fermi energy is     1.8327 ev

!    total energy              =    -473.82388207 Ry
     total all-electron energy =     -5827.537261 Ry
     estimated scf accuracy    <          3.4E-10 Ry
     smearing contrib. (-TS)   =      -0.00043277 Ry
     internal energy E=F+TS    =    -473.82344930 Ry

     The total energy is F=E-TS. E is the sum of the following terms:
     one-electron contribution =    -169.95897884 Ry
     hartree contribution      =      95.90985374 Ry
     xc contribution           =     -30.40754073 Ry
     ewald contribution        =      46.77002263 Ry
     one-center paw contrib.   =    -416.13680610 Ry

     convergence has been achieved in   8 iterations

     negative rho (up, down):  5.740E-07 0.000E+00

     Forces acting on atoms (cartesian axes, Ry/au):

     atom    1 type  1   force =     0.00000003    0.00000001   -0.00083714
     atom    2 type  1   force =    -0.00000003    0.00000001   -0.00083714
     atom    3 type  1   force =    -0.00000000   -0.00000003   -0.00083714
     atom    4 type  1   force =     0.00000000   -0.00000000   -0.00083738
     atom    5 type  1   force =     0.00000000   -0.00000019    0.00010030
     atom    6 type  1   force =     0.00000000    0.00000000    0.00010041
     atom    7 type  1   force =     0.00000016    0.00000009    0.00010030
     atom    8 type  1   force =    -0.00000016    0.00000009    0.00010030
     atom    9 type  1   force =     0.00000000    0.00000000    0.00073691
     atom   10 type  1   force =     0.00000000    0.00000015    0.00073686
     atom   11 type  1   force =     0.00000013   -0.00000008    0.00073686
     atom   12 type  1   force =    -0.00000013   -0.00000008    0.00073686

     Total force =     0.001487     Total SCF correction =     0.000025
     Energy error            =      3.2E-06 Ry
     Gradient error          =      7.4E-04 Ry/Bohr

     number of scf cycles    =   3
     number of bfgs steps    =   2

     energy             old  =    -473.8238788846 Ry
     energy             new  =    -473.8238820683 Ry

     CASE: energy            _new < energy            _old

     new trust radius        =       0.0014030995 bohr
     new conv_thr            =       0.0000000010 Ry


ATOMIC_POSITIONS (angstrom)
Al            1.4318910000        0.8267030000        0.0000000000    0   0   0
Al            4.2956740000        0.8267030000        0.0000000000    0   0   0
Al            2.8637820000        3.3068110000        0.0000000000    0   0   0
Al            5.7275650000        3.3068110000        0.0000000000    0   0   0
Al           -0.0000000000        1.6534059152        2.3383736650
Al            2.8637820000        1.6534060000        2.3383728881
Al            1.4318910735        4.1335140424        2.3383736650
Al            4.2956739265        4.1335140424        2.3383736650
Al           -0.0000000000       -0.0000000000        4.6782233093
Al            2.8637820000       -0.0000002466        4.6782233444
Al            1.4318907865        2.4801081233        4.6782233444
Al            4.2956742135        2.4801081233        4.6782233444



     Writing config-only to output data dir ./output/pwscf.save/
     NEW-OLD atomic charge density approx. for the potential

     negative rho (up, down):  5.403E-07 0.000E+00

     total cpu time spent up to now is       23.6 secs

     Self-consistent Calculation

     iteration #  1     ecut=    40.00 Ry     beta= 0.70
     Davidson diagonalization with overlap
     ethr =  1.00E-06,  avg # of iterations =  2.0

     Threshold (ethr) on eigenvalues was too large:
     Diagonalizing with lowered threshold

     Davidson diagonalization with overlap
     ethr =  3.90E-10,  avg # of iterations =  6.9

     negative rho (up, down):  5.637E-07 0.000E+00

     total cpu time spent up to now is       25.3 secs

     total energy              =    -473.82388581 Ry
     estimated scf accuracy    <       0.00000039 Ry

     iteration #  2     ecut=    40.00 Ry     beta= 0.70
     Davidson diagonalization with overlap
     ethr =  1.09E-09,  avg # of iterations =  5.2

     negative rho (up, down):  5.649E-07 0.000E+00

     total cpu time spent up to now is       26.2 secs

     total energy              =    -473.82388517 Ry
     estimated scf accuracy    <       0.00000863 Ry

     iteration #  3     ecut=    40.00 Ry     beta= 0.70
     Davidson diagonalization with overlap
     ethr =  1.09E-09,  avg # of iterations =  5.7

     negative rho (up, down):  5.661E-07 0.000E+00

     total cpu time spent up to now is       27.0 secs

     total energy              =    -473.82388583 Ry
     estimated scf accuracy    <       0.00000272 Ry

     iteration #  4     ecut=    40.00 Ry     beta= 0.70
     Davidson diagonalization with overlap
     ethr =  1.09E-09,  avg # of iterations =  4.9

     negative rho (up, down):  5.694E-07 0.000E+00

     total cpu time spent up to now is       27.9 secs

     total energy              =    -473.82388604 Ry
     estimated scf accuracy    <       0.00000004 Ry

     iteration #  5     ecut=    40.00 Ry     beta= 0.70
     Davidson diagonalization with overlap
     ethr =  1.21E-10,  avg # of iterations =  3.4

     negative rho (up, down):  5.741E-07 0.000E+00

     total cpu time spent up to now is       28.7 secs

     total energy              =    -473.82388605 Ry
     estimated scf accuracy    <          2.5E-09 Ry

     iteration #  6     ecut=    40.00 Ry     beta= 0.70
     Davidson diagonalization with overlap
     ethr =  6.81E-12,  avg # of iterations =  4.5

     negative rho (up, down):  5.746E-07 0.000E+00

     total cpu time spent up to now is       29.6 secs

     End of self-consistent calculation

          k = 0.0000 0.0000 0.0000 ( 11947 PWs)   bands (ev):

    -8.7391  -7.0533  -4.4398  -2.8863  -2.8863  -2.8863  -2.8505  -2.8505
    -2.8505  -1.4843  -1.4843  -1.4843  -1.3156  -0.9582  -0.9582  -0.9582
     1.3177   1.3177   1.3177   1.5411   1.5411   1.5411

          k = 0.0000 0.1283 0.0000 ( 11973 PWs)   bands (ev):

    -8.6650  -6.9797  -4.3665  -4.0766  -3.4348  -3.4348  -2.4444  -2.1674
    -2.1674  -1.8340  -1.8340  -1.5535  -1.2457  -0.4869  -0.4869  -0.0615
     0.4694   0.8921   0.8921   2.1120   2.1120   2.2344

          k = 0.0000 0.2566 0.0000 ( 11997 PWs)   bands (ev):

    -8.4430  -6.7594  -5.1546  -4.1468  -3.8619  -3.8619  -3.5013  -2.2329
    -2.2329  -1.3439  -1.3439  -1.0363  -0.9952   0.0474   0.1437   0.1437
     0.6752   0.6752   1.6365   2.1516   2.4427   2.8588

          k = 0.0000 0.3849 0.0000 ( 12015 PWs)   bands (ev):

    -8.0737  -6.3929  -6.0965  -4.4325  -4.1476  -4.1476  -3.7819  -2.5088
    -2.5088  -1.8477  -0.6876  -0.4800  -0.4800   0.2025   0.2025   1.1006
     1.3918   1.3918   1.6938   2.7841   2.9461   2.9461

          k = 0.0000 0.5132 0.0000 ( 12028 PWs)   bands (ev):

    -7.5584  -6.8986  -5.8816  -5.2273  -4.2908  -4.2908  -3.2738  -2.6483
    -2.6483  -2.6263  -0.2008  -0.1836  -0.1836   0.4196   0.8644   0.8644
     2.0252   2.0252   2.4172   2.4172   3.0445   3.0448

          k = 0.1111 0.1925 0.0000 ( 11985 PWs)   bands (ev):

    -8.5169  -6.8328  -4.5784  -4.5784  -4.2200  -2.9338  -2.9338  -2.6756
    -2.6359  -1.2788  -1.1061  -0.8924  -0.8924  -0.7445  -0.2083  -0.2083
     0.9877   0.9877   1.5174   1.7244   2.3735   2.6664

          k = 0.1111 0.3208 0.0000 ( 12006 PWs)   bands (ev):

    -8.2213  -6.5394  -5.5884  -4.9381  -3.9298  -3.9276  -3.2873  -3.0081
    -1.7452  -1.4165  -1.3658  -0.8270  -0.7882  -0.0694   0.2564   0.7983
     1.2741   1.7350   1.8383   2.3537   2.3922   2.4842

          k = 0.1111 0.4491 0.0000 ( 12024 PWs)   bands (ev):

    -7.7790  -6.4605  -6.1005  -5.1544  -4.7931  -3.5004  -3.4911  -3.2201
    -2.1989  -1.6028  -0.9487  -0.7177  -0.4091   0.7337   0.8240   1.1940
     1.2073   1.8996   2.1339   2.4845   2.8768   3.0495

          k = 0.1111-0.5774 0.0000 ( 12045 PWs)   bands (ev):

    -7.1914  -7.1914  -5.5177  -5.5177  -5.2266  -3.5716  -3.2909  -2.9131
    -2.9131  -1.6684  -1.0105   0.1454   0.1454   0.2726   0.4510   1.1619
     1.8386   1.8926   2.4687   2.5585   2.6101   3.4743

          k = 0.2222 0.3849 0.0000 ( 12033 PWs)   bands (ev):

    -7.8526  -6.1735  -5.8785  -5.8785  -4.2166  -4.2166  -3.5637  -2.0449
    -1.9963  -1.6359  -1.6359  -0.6685  -0.4786  -0.1096   1.3038   1.3038
     1.5230   1.9019   1.9019   2.0374   2.7137   2.9859

          k = 0.2222-0.6415 0.0000 ( 12031 PWs)   bands (ev):

    -7.3381  -6.6793  -6.0237  -5.6631  -5.0100  -4.3603  -3.0571  -2.4116
    -2.1600  -1.7737  -0.9076  -0.5984   0.0075   0.3094   0.6266   0.7437
     1.2320   1.7622   2.5654   2.8939   3.3789   3.4265

          k = 0.3333-0.5774 0.0000 ( 12015 PWs)   bands (ev):

    -6.7524  -6.7524  -6.7524  -5.0823  -5.0823  -5.0823  -2.4827  -2.4827
    -2.4827  -0.9986  -0.9980  -0.9241   0.1461   0.5594   0.5594   0.5594
     0.9064   0.9069   3.3292   3.3297   3.6894   3.8041

     the Fermi energy is     1.8333 ev

!    total energy              =    -473.82388605 Ry
     total all-electron energy =     -5827.537265 Ry
     estimated scf accuracy    <          6.7E-10 Ry
     smearing contrib. (-TS)   =      -0.00043124 Ry
     internal energy E=F+TS    =    -473.82345481 Ry

     The total energy is F=E-TS. E is the sum of the following terms:
     one-electron contribution =    -169.90908616 Ry
     hartree contribution      =      95.88510789 Ry
     xc contribution           =     -30.40688746 Ry
     ewald contribution        =      46.74410543 Ry
     one-center paw contrib.   =    -416.13669451 Ry

     convergence has been achieved in   6 iterations

     negative rho (up, down):  5.746E-07 0.000E+00

     Forces acting on atoms (cartesian axes, Ry/au):

     atom    1 type  1   force =     0.00000003    0.00000002   -0.00081911
     atom    2 type  1   force =    -0.00000003    0.00000002   -0.00081911
     atom    3 type  1   force =     0.00000000   -0.00000003   -0.00081911
     atom    4 type  1   force =     0.00000000    0.00000000   -0.00081907
     atom    5 type  1   force =     0.00000000   -0.00000006    0.00016723
     atom    6 type  1   force =     0.00000000    0.00000000    0.00016739
     atom    7 type  1   force =     0.00000005    0.00000003    0.00016723
     atom    8 type  1   force =    -0.00000005    0.00000003    0.00016723
     atom    9 type  1   force =     0.00000000   -0.00000000    0.00065180
     atom   10 type  1   force =     0.00000000    0.00000012    0.00065185
     atom   11 type  1   force =     0.00000011   -0.00000006    0.00065185
     atom   12 type  1   force =    -0.00000011   -0.00000006    0.00065185

     Total force =     0.001346     Total SCF correction =     0.000032
     Energy error            =      4.0E-06 Ry
     Gradient error          =      6.5E-04 Ry/Bohr

     bfgs converged in   4 scf cycles and   3 bfgs steps
     (criteria: energy <  1.0E-04 Ry, force <  7.0E-04 Ry/Bohr)

     End of BFGS Geometry Optimization

     Final energy             =    -473.8238860496 Ry

     File ./output/pwscf.bfgs deleted, as requested
Begin final coordinates

ATOMIC_POSITIONS (angstrom)
Al            1.4318910000        0.8267030000        0.0000000000    0   0   0
Al            4.2956740000        0.8267030000        0.0000000000    0   0   0
Al            2.8637820000        3.3068110000        0.0000000000    0   0   0
Al            5.7275650000        3.3068110000        0.0000000000    0   0   0
Al           -0.0000000000        1.6534059152        2.3383736650
Al            2.8637820000        1.6534060000        2.3383728881
Al            1.4318910735        4.1335140424        2.3383736650
Al            4.2956739265        4.1335140424        2.3383736650
Al           -0.0000000000       -0.0000000000        4.6782233093
Al            2.8637820000       -0.0000002466        4.6782233444
Al            1.4318907865        2.4801081233        4.6782233444
Al            4.2956742135        2.4801081233        4.6782233444
End final coordinates



     Writing all to output data dir ./output/pwscf.save/
 
     init_run     :      0.45s CPU      0.54s WALL (       1 calls)
     electrons    :     26.49s CPU     27.11s WALL (       4 calls)
     update_pot   :      0.77s CPU      0.78s WALL (       3 calls)
     forces       :      0.68s CPU      0.70s WALL (       4 calls)

     Called by init_run:
     wfcinit      :      0.19s CPU      0.20s WALL (       1 calls)
     potinit      :      0.11s CPU      0.14s WALL (       1 calls)
     hinit0       :      0.06s CPU      0.06s WALL (       1 calls)

     Called by electrons:
     c_bands      :     21.05s CPU     21.28s WALL (      32 calls)
     sum_band     :      2.20s CPU      2.30s WALL (      32 calls)
     v_of_rho     :      0.24s CPU      0.27s WALL (      33 calls)
     newd         :      0.72s CPU      0.75s WALL (      33 calls)
     PAW_pot      :      2.85s CPU      2.88s WALL (      36 calls)
     mix_rho      :      0.04s CPU      0.05s WALL (      32 calls)

     Called by c_bands:
     init_us_2    :      0.33s CPU      0.34s WALL (     864 calls)
     init_us_2:cp :      0.32s CPU      0.34s WALL (     864 calls)
     cegterg      :     18.08s CPU     18.27s WALL (     384 calls)

     Called by *egterg:
     cdiaghg      :      1.21s CPU      1.22s WALL (    1984 calls)
     h_psi        :     15.19s CPU     15.36s WALL (    2068 calls)
     s_psi        :      0.69s CPU      0.70s WALL (    2068 calls)
     g_psi        :      0.03s CPU      0.03s WALL (    1672 calls)

     Called by h_psi:
     h_psi:calbec :      0.90s CPU      0.93s WALL (    2068 calls)
     vloc_psi     :     13.50s CPU     13.64s WALL (    2068 calls)
     add_vuspsi   :      0.74s CPU      0.75s WALL (    2068 calls)

     General routines
     calbec       :      1.25s CPU      1.28s WALL (    2680 calls)
     fft          :      0.44s CPU      0.47s WALL (     471 calls)
     ffts         :      0.01s CPU      0.01s WALL (      65 calls)
     fftw         :     13.80s CPU     13.94s WALL (   58840 calls)
     interpolate  :      0.02s CPU      0.02s WALL (      33 calls)
 
     Parallel routines
 
     PWSCF        :     28.92s CPU     30.67s WALL

 
   This run was terminated on:  11:12:17  17Jun2023            

=------------------------------------------------------------------------------=
   JOB DONE.
=------------------------------------------------------------------------------=
