
     Program PWSCF v.6.7MaX starts on 12Jun2023 at 19:41: 7 

     This program is part of the open-source Quantum ESPRESSO suite
     for quantum simulation of materials; please cite
         "P. Giannozzi et al., J. Phys.:Condens. Matter 21 395502 (2009);
         "P. Giannozzi et al., J. Phys.:Condens. Matter 29 465901 (2017);
          URL http://www.quantum-espresso.org", 
     in publications or presentations arising from this work. More details at
     http://www.quantum-espresso.org/quote

     Parallel version (MPI), running on     6 processors

     MPI processes distributed on     1 nodes
     R & G space division:  proc/nbgrp/npool/nimage =       6
     Waiting for input...
     Reading input from standard input

     Current dimensions of program PWSCF are:
     Max number of different atomic species (ntypx) = 10
     Max number of k-points (npk) =  40000
     Max angular momentum in pseudopotentials (lmaxx) =  3
     file Al.pbe-n-kjpaw_psl.1.0.0.UPF: wavefunction(s)  3S 3P renormalized
     file O.pbe-n-kjpaw_psl.0.1.UPF: wavefunction(s)  2P renormalized
     file C.pbe-n-kjpaw_psl.1.0.0.UPF: wavefunction(s)  2S 2P renormalized

     Subspace diagonalization in iterative solution of the eigenvalue problem:
     one sub-group per band group will be used
     scalapack distributed-memory algorithm (size of sub-group:  2*  2 procs)

     Message from routine setup:
     using ibrav=0 with symmetry is DISCOURAGED, use correct ibrav instead

     Parallelization info
     --------------------
     sticks:   dense  smooth     PW     G-vecs:    dense   smooth      PW
     Min         726     362     98                66228    23420    3365
     Max         727     363    100                66230    23427    3370
     Sum        4357    2173    595               397373   140533   20205



     bravais-lattice index     =            0
     lattice parameter (alat)  =      16.2353  a.u.
     unit-cell volume          =    6331.0157 (a.u.)^3
     number of atoms/cell      =           29
     number of atomic types    =            3
     number of electrons       =        91.00
     number of Kohn-Sham states=           55
     kinetic-energy cutoff     =      30.0000  Ry
     charge density cutoff     =     240.0000  Ry
     scf convergence threshold =      1.0E-04
     mixing beta               =       0.7000
     number of iterations used =            8  plain     mixing
     energy convergence thresh.=      1.0E-04
     force convergence thresh. =      1.0E-01
     Exchange-correlation= SLA  PW   PBX  PBC
                           (   1   4   3   4   0   0   0)
     nstep                     =           50


     celldm(1)=  16.235294  celldm(2)=   0.000000  celldm(3)=   0.000000
     celldm(4)=   0.000000  celldm(5)=   0.000000  celldm(6)=   0.000000

     crystal axes: (cart. coord. in units of alat)
               a(1) = (   1.000000   0.000000   0.000000 )  
               a(2) = (   0.500000   0.866025   0.000000 )  
               a(3) = (   0.000000   0.000000   1.708293 )  

     reciprocal axes: (cart. coord. in units 2 pi/alat)
               b(1) = (  1.000000 -0.577350  0.000000 )  
               b(2) = (  0.000000  1.154701  0.000000 )  
               b(3) = (  0.000000  0.000000  0.585380 )  


     PseudoPot. # 1 for Al read from file:
     /home/mini21k/QE/Potential/Al.pbe-n-kjpaw_psl.1.0.0.UPF
     MD5 check sum: cfc449ca30b5f3223ec38ddd88ac046d
     Pseudo is Projector augmented-wave + core cor, Zval =  3.0
     Generated using "atomic" code by A. Dal Corso  v.5.1
     Shape of augmentation charge: PSQ
     Using radial grid of 1135 points,  6 beta functions with: 
                l(1) =   0
                l(2) =   0
                l(3) =   1
                l(4) =   1
                l(5) =   2
                l(6) =   2
     Q(r) pseudized with 0 coefficients 


     PseudoPot. # 2 for O  read from file:
     /home/mini21k/QE/Potential/O.pbe-n-kjpaw_psl.0.1.UPF
     MD5 check sum: 0234752ac141de4415c5fc33072bef88
     Pseudo is Projector augmented-wave + core cor, Zval =  6.0
     Generated using "atomic" code by A. Dal Corso  v.5.0.99 svn rev. 10869
     Shape of augmentation charge: BESSEL
     Using radial grid of 1095 points,  4 beta functions with: 
                l(1) =   0
                l(2) =   0
                l(3) =   1
                l(4) =   1
     Q(r) pseudized with 0 coefficients 


     PseudoPot. # 3 for C  read from file:
     /home/mini21k/QE/Potential/C.pbe-n-kjpaw_psl.1.0.0.UPF
     MD5 check sum: 5d2aebdfa2cae82b50a7e79e9516da0f
     Pseudo is Projector augmented-wave + core cor, Zval =  4.0
     Generated using "atomic" code by A. Dal Corso  v.5.1
     Shape of augmentation charge: PSQ
     Using radial grid of 1073 points,  4 beta functions with: 
                l(1) =   0
                l(2) =   0
                l(3) =   1
                l(4) =   1
     Q(r) pseudized with 0 coefficients 


     atomic species   valence    mass     pseudopotential
        Al             3.00    26.98154     Al( 1.00)
        O              6.00    15.99900     O ( 1.00)
        C              4.00    12.01100     C ( 1.00)

      6 Sym. Ops. (no inversion) found



   Cartesian axes

     site n.     atom                  positions (alat units)
         1           Al  tau(   1) = (   0.1666667   0.0962250   0.0000000  )
         2           Al  tau(   2) = (   0.5000000   0.0962250   0.0000000  )
         3           Al  tau(   3) = (   0.8333333   0.0962250   0.0000000  )
         4           Al  tau(   4) = (   0.3333333   0.3849002   0.0000000  )
         5           Al  tau(   5) = (   0.6666667   0.3849002   0.0000000  )
         6           Al  tau(   6) = (   1.0000000   0.3849002   0.0000000  )
         7           Al  tau(   7) = (   0.5000000   0.6735753   0.0000000  )
         8           Al  tau(   8) = (   0.8333333   0.6735753   0.0000000  )
         9           Al  tau(   9) = (   1.1666667   0.6735753   0.0000000  )
        10           Al  tau(  10) = (   0.0000000   0.1924501   0.2721655  )
        11           Al  tau(  11) = (   0.3333333   0.1924501   0.2721655  )
        12           Al  tau(  12) = (   0.6666667   0.1924501   0.2721655  )
        13           Al  tau(  13) = (   0.1666667   0.4811252   0.2721655  )
        14           Al  tau(  14) = (   0.5000000   0.4811252   0.2721655  )
        15           Al  tau(  15) = (   0.8333333   0.4811252   0.2721655  )
        16           Al  tau(  16) = (   0.3333333   0.7698004   0.2721655  )
        17           Al  tau(  17) = (   0.6666667   0.7698004   0.2721655  )
        18           Al  tau(  18) = (   1.0000000   0.7698004   0.2721655  )
        19           Al  tau(  19) = (   0.0000000   0.0000000   0.5443311  )
        20           Al  tau(  20) = (   0.3333333   0.0000000   0.5443311  )
        21           Al  tau(  21) = (   0.6666667   0.0000000   0.5443311  )
        22           Al  tau(  22) = (   0.1666667   0.2886751   0.5443311  )
        23           Al  tau(  23) = (   0.5000000   0.2886751   0.5443311  )
        24           Al  tau(  24) = (   0.8333333   0.2886751   0.5443311  )
        25           Al  tau(  25) = (   0.3333333   0.5773503   0.5443311  )
        26           Al  tau(  26) = (   0.6666667   0.5773503   0.5443311  )
        27           Al  tau(  27) = (   1.0000000   0.5773503   0.5443311  )
        28           O   tau(  28) = (   0.0000000   0.0000000   0.9174347  )
        29           C   tau(  29) = (   0.0000000   0.0000000   0.7824151  )

     number of k points=     3  Gaussian smearing, width (Ry)=  0.0030
                       cart. coord. in units 2pi/alat
        k(    1) = (   0.0000000   0.0000000   0.0000000), wk =   0.2222222
        k(    2) = (   0.0000000   0.3849002   0.0000000), wk =   1.3333333
        k(    3) = (   0.3333333  -0.5773503   0.0000000), wk =   0.4444444

     Dense  grid:   397373 G-vectors     FFT dimensions: (  81,  81, 144)

     Smooth grid:   140533 G-vectors     FFT dimensions: (  60,  60, 100)

     Estimated max dynamical RAM per process >     346.46 MB

     Estimated total dynamical RAM >       2.03 GB

     Check: negative core charge=   -0.000002

     Initial potential from superposition of free atoms

     starting charge   90.93812, renormalised to   91.00000
     Starting wfcs are  116 randomized atomic wfcs
     Checking if some PAW data can be deallocated... 

     total cpu time spent up to now is        8.0 secs

     Self-consistent Calculation

     iteration #  1     ecut=    30.00 Ry     beta= 0.70
     Davidson diagonalization with overlap
     ethr =  1.00E-02,  avg # of iterations =  3.3

     negative rho (up, down):  1.314E-05 0.000E+00

     total cpu time spent up to now is       18.5 secs

     total energy              =   -1125.09813450 Ry
     estimated scf accuracy    <       1.49828368 Ry

     iteration #  2     ecut=    30.00 Ry     beta= 0.70
     Davidson diagonalization with overlap
     ethr =  1.65E-03,  avg # of iterations =  7.0

     negative rho (up, down):  3.174E-05 0.000E+00

     total cpu time spent up to now is       32.5 secs

     total energy              =   -1123.13871049 Ry
     estimated scf accuracy    <      24.64899502 Ry

     iteration #  3     ecut=    30.00 Ry     beta= 0.70
     Davidson diagonalization with overlap
     ethr =  1.65E-03,  avg # of iterations =  5.0

     total cpu time spent up to now is       44.4 secs

     total energy              =   -1125.74885924 Ry
     estimated scf accuracy    <       1.39905537 Ry

     iteration #  4     ecut=    30.00 Ry     beta= 0.70
     Davidson diagonalization with overlap
     ethr =  1.54E-03,  avg # of iterations =  5.7

     total cpu time spent up to now is       54.2 secs

     total energy              =   -1125.82175718 Ry
     estimated scf accuracy    <       2.42298604 Ry

     iteration #  5     ecut=    30.00 Ry     beta= 0.70
     Davidson diagonalization with overlap
     ethr =  1.54E-03,  avg # of iterations =  2.0

     total cpu time spent up to now is       63.1 secs

     total energy              =   -1125.98990024 Ry
     estimated scf accuracy    <       0.21859525 Ry

     iteration #  6     ecut=    30.00 Ry     beta= 0.70
     Davidson diagonalization with overlap
     ethr =  2.40E-04,  avg # of iterations =  8.3

     negative rho (up, down):  8.809E-07 0.000E+00

     total cpu time spent up to now is       73.5 secs

     total energy              =   -1126.01924580 Ry
     estimated scf accuracy    <       0.04521912 Ry

     iteration #  7     ecut=    30.00 Ry     beta= 0.70
     Davidson diagonalization with overlap
     ethr =  4.97E-05,  avg # of iterations = 10.3

     negative rho (up, down):  1.487E-05 0.000E+00

     total cpu time spent up to now is       85.1 secs

     total energy              =   -1126.02902076 Ry
     estimated scf accuracy    <       0.02057080 Ry

     iteration #  8     ecut=    30.00 Ry     beta= 0.70
     Davidson diagonalization with overlap
     ethr =  2.26E-05,  avg # of iterations =  4.0

     negative rho (up, down):  6.382E-05 0.000E+00

     total cpu time spent up to now is       94.3 secs

     total energy              =   -1126.03028394 Ry
     estimated scf accuracy    <       0.00644782 Ry

     iteration #  9     ecut=    30.00 Ry     beta= 0.70
     Davidson diagonalization with overlap
     ethr =  7.09E-06,  avg # of iterations =  5.0

     negative rho (up, down):  1.533E-04 0.000E+00

     total cpu time spent up to now is      103.5 secs

     total energy              =   -1126.03040515 Ry
     estimated scf accuracy    <       0.00141740 Ry

     iteration # 10     ecut=    30.00 Ry     beta= 0.70
     Davidson diagonalization with overlap
     c_bands:  1 eigenvalues not converged
     c_bands:  1 eigenvalues not converged
     ethr =  1.56E-06,  avg # of iterations = 15.0

     negative rho (up, down):  1.603E-04 0.000E+00

     total cpu time spent up to now is      116.2 secs

     total energy              =   -1126.03078120 Ry
     estimated scf accuracy    <       0.00069110 Ry

     iteration # 11     ecut=    30.00 Ry     beta= 0.70
     Davidson diagonalization with overlap
     ethr =  7.59E-07,  avg # of iterations =  5.7

     negative rho (up, down):  1.534E-04 0.000E+00

     total cpu time spent up to now is      125.3 secs

     total energy              =   -1126.03077844 Ry
     estimated scf accuracy    <       0.00030284 Ry

     iteration # 12     ecut=    30.00 Ry     beta= 0.70
     Davidson diagonalization with overlap
     ethr =  3.33E-07,  avg # of iterations =  2.0

     negative rho (up, down):  1.552E-04 0.000E+00

     total cpu time spent up to now is      133.9 secs

     End of self-consistent calculation

          k = 0.0000 0.0000 0.0000 ( 17551 PWs)   bands (ev):

   -22.8475  -8.6763  -8.3174  -6.9208  -6.1235  -5.9634  -5.9634  -5.9498
    -5.9498  -5.9368  -5.4799  -5.4627  -5.4627  -4.2700  -4.2700  -4.2690
    -4.2581  -4.2581  -4.2553  -3.6471  -1.7006  -1.7006  -1.6700  -1.6700
    -1.6538  -1.3798  -0.8934  -0.8543  -0.8543  -0.8496  -0.7795  -0.7795
    -0.7122   0.2867   0.2867   0.9838   0.9838   1.0705   1.0803   1.1753
     1.1753   1.2642   1.2642   1.2814   1.5296   1.8336   1.8336   1.8514
     1.8514   1.8562   2.0779   2.6003   3.0536   3.0536   3.3781

          k = 0.0000 0.3849 0.0000 ( 17558 PWs)   bands (ev):

   -22.8481  -8.5031  -8.2018  -7.4068  -6.6714  -6.5419  -6.5359  -5.9138
    -5.4896  -5.4839  -5.3778  -4.8273  -4.7947  -4.7865  -4.6081  -3.9306
    -3.7637  -3.1273  -3.1166  -3.0740  -3.0724  -2.8829  -2.2822  -2.2437
    -1.9913  -1.4477  -1.4193  -1.4030  -0.7585  -0.6401  -0.5734  -0.5717
    -0.5088   0.0446   0.1293   0.3972   0.4228   0.6573   0.7143   0.8679
     0.8773   1.0786   1.3553   1.4321   1.9713   2.0091   2.0448   2.0685
     2.3985   2.4808   2.6604   2.9811   3.0875   3.1443   3.4694

          k = 0.3333-0.5774 0.0000 ( 17592 PWs)   bands (ev):

   -22.8486  -8.4457  -7.7063  -7.6981  -7.6695  -6.3097  -6.0235  -6.0183
    -5.4631  -5.4624  -5.3116  -5.0651  -5.0648  -4.9388  -3.4115  -3.4072
    -3.4047  -3.3822  -3.3741  -2.8497  -2.5300  -2.5285  -2.4957  -2.4912
    -2.4911  -2.4515  -1.1459  -1.1352  -1.1025  -0.8574  -0.8539  -0.7525
    -0.6017  -0.5848  -0.5492  -0.3175  -0.3106   0.2513   1.5844   1.6403
     1.7286   1.7854   1.8247   1.9328   1.9587   1.9669   2.1904   2.5854
     2.6107   2.6359   2.6571   2.6968   2.8056   3.0529   3.0767

     the Fermi energy is     1.9799 ev

!    total energy              =   -1126.03078487 Ry

     total all-electron energy =    -13338.496878 Ry
     estimated scf accuracy    <       0.00001812 Ry
     smearing contrib. (-TS)   =      -0.00258195 Ry
     internal energy E=F+TS    =   -1126.02820292 Ry

     The total energy is F=E-TS. E is the sum of the following terms:
     one-electron contribution =    -371.00890464 Ry
     hartree contribution      =     214.16809582 Ry
     xc contribution           =     -80.23976310 Ry
     ewald contribution        =      63.08239196 Ry
     one-center paw contrib.   =    -952.03002296 Ry

     convergence has been achieved in  12 iterations

     negative rho (up, down):  1.552E-04 0.000E+00

     Forces acting on atoms (cartesian axes, Ry/au):

     atom    1 type  1   force =     0.00270764    0.00156325   -0.00432181
     atom    2 type  1   force =     0.00000000    0.00107482   -0.00644399
     atom    3 type  1   force =    -0.00270764    0.00156325   -0.00432181
     atom    4 type  1   force =     0.00093082   -0.00053741   -0.00644399
     atom    5 type  1   force =    -0.00093082   -0.00053741   -0.00644399
     atom    6 type  1   force =     0.00000000   -0.00102586   -0.00440891
     atom    7 type  1   force =     0.00000000   -0.00312651   -0.00432181
     atom    8 type  1   force =    -0.00088842    0.00051293   -0.00440891
     atom    9 type  1   force =     0.00088842    0.00051293   -0.00440891
     atom   10 type  1   force =     0.00000000    0.00498486   -0.00303301
     atom   11 type  1   force =    -0.00112751   -0.00065097    0.00137032
     atom   12 type  1   force =     0.00112751   -0.00065097    0.00137032
     atom   13 type  1   force =    -0.00246765    0.00142470    0.00179325
     atom   14 type  1   force =     0.00000000    0.00130194    0.00137032
     atom   15 type  1   force =     0.00246765    0.00142470    0.00179325
     atom   16 type  1   force =    -0.00431701   -0.00249243   -0.00303301
     atom   17 type  1   force =     0.00431701   -0.00249243   -0.00303301
     atom   18 type  1   force =     0.00000000   -0.00284939    0.00179325
     atom   19 type  1   force =     0.00000000    0.00000000    0.02239969
     atom   20 type  1   force =     0.00123424    0.00021061    0.00456002
     atom   21 type  1   force =    -0.00123424    0.00021061    0.00456002
     atom   22 type  1   force =     0.00079951    0.00096358    0.00456002
     atom   23 type  1   force =     0.00000000    0.00000000    0.00210521
     atom   24 type  1   force =    -0.00079951    0.00096358    0.00456002
     atom   25 type  1   force =    -0.00043473   -0.00117419    0.00456002
     atom   26 type  1   force =     0.00043473   -0.00117419    0.00456002
     atom   27 type  1   force =     0.00000000    0.00000000    0.00198441
     atom   28 type  2   force =     0.00000000    0.00000000    0.01534724
     atom   29 type  3   force =     0.00000000    0.00000000   -0.02406421

     Total force =     0.040072     Total SCF correction =     0.004555
     SCF correction compared to forces is large: reduce conv_thr to get better values

     BFGS Geometry Optimization
     Energy error            =      0.0E+00
     Gradient error          =      2.4E-02

     bfgs converged in   1 scf cycles and   0 bfgs steps
     (criteria: energy <  1.0E-04 Ry, force <  1.0E-01 Ry/Bohr)

     End of BFGS Geometry Optimization

     Final energy   =   -1126.0307848669 Ry
Begin final coordinates

ATOMIC_POSITIONS (angstrom)
Al            1.4318912319        0.8267027882        0.0000000000    0   0   0
Al            4.2956736957        0.8267027882        0.0000000000    0   0   0
Al            7.1594561595        0.8267027882        0.0000000000    0   0   0
Al            2.8637824638        3.3068111528        0.0000000000    0   0   0
Al            5.7275649276        3.3068111528        0.0000000000    0   0   0
Al            8.5913473914        3.3068111528        0.0000000000    0   0   0
Al            4.2956736957        5.7869195173        0.0000000000    0   0   0
Al            7.1594561595        5.7869195173        0.0000000000    0   0   0
Al           10.0232386233        5.7869195173        0.0000000000    0   0   0
Al            0.0000000000        1.6534055764        2.3382685902
Al            2.8637824638        1.6534055764        2.3382685902
Al            5.7275649276        1.6534055764        2.3382685902
Al            1.4318912319        4.1335139409        2.3382685902
Al            4.2956736957        4.1335139409        2.3382685902
Al            7.1594561595        4.1335139409        2.3382685902
Al            2.8637824638        6.6136223055        2.3382685902
Al            5.7275649276        6.6136223055        2.3382685902
Al            8.5913473914        6.6136223055        2.3382685902
Al            0.0000000000        0.0000000000        4.6765371804
Al            2.8637824638        0.0000000000        4.6765371804
Al            5.7275649276        0.0000000000        4.6765371804
Al            1.4318912319        2.4801083646        4.6765371804
Al            4.2956736957        2.4801083646        4.6765371804
Al            7.1594561595        2.4801083646        4.6765371804
Al            2.8637824638        4.9602167291        4.6765371804
Al            5.7275649276        4.9602167291        4.6765371804
Al            8.5913473914        4.9602167291        4.6765371804
O             0.0000000000        0.0000000000        7.8820000000
C             0.0000000000        0.0000000000        6.7220000000
End final coordinates



     Writing output data file ./output/pwscf.save/

     init_run     :      7.54s CPU      7.88s WALL (       1 calls)
     electrons    :    123.20s CPU    125.95s WALL (       1 calls)
     forces       :      6.46s CPU      6.70s WALL (       1 calls)

     Called by init_run:
     wfcinit      :      4.48s CPU      4.53s WALL (       1 calls)
     potinit      :      1.11s CPU      1.17s WALL (       1 calls)
     hinit0       :      0.94s CPU      0.96s WALL (       1 calls)

     Called by electrons:
     c_bands      :     80.36s CPU     80.58s WALL (      12 calls)
     sum_band     :     21.68s CPU     23.13s WALL (      12 calls)
     v_of_rho     :      1.83s CPU      1.89s WALL (      13 calls)
     newd         :     12.67s CPU     13.93s WALL (      13 calls)
     PAW_pot      :      7.62s CPU      7.64s WALL (      13 calls)
     mix_rho      :      0.34s CPU      0.36s WALL (      12 calls)

     Called by c_bands:
     init_us_2    :      0.95s CPU      0.96s WALL (      78 calls)
     cegterg      :     77.76s CPU     77.97s WALL (      36 calls)

     Called by *egterg:
     cdiaghg      :      1.09s CPU      1.09s WALL (     256 calls)
     h_psi        :     46.43s CPU     46.67s WALL (     259 calls)
     s_psi        :     18.63s CPU     18.63s WALL (     259 calls)
     g_psi        :      0.07s CPU      0.07s WALL (     220 calls)

     Called by h_psi:
     h_psi:calbec :     20.20s CPU     20.26s WALL (     259 calls)
     vloc_psi     :      6.83s CPU      7.01s WALL (     259 calls)
     add_vuspsi   :     19.32s CPU     19.32s WALL (     259 calls)

     General routines
     calbec       :     29.15s CPU     29.23s WALL (     307 calls)
     fft          :      1.60s CPU      1.68s WALL (     178 calls)
     ffts         :      0.04s CPU      0.05s WALL (      25 calls)
     fftw         :      7.02s CPU      7.18s WALL (   13658 calls)
     interpolate  :      0.16s CPU      0.16s WALL (      13 calls)

     Parallel routines
     fft_scatt_xy :      1.14s CPU      1.17s WALL (   13861 calls)
     fft_scatt_yz :      3.78s CPU      3.88s WALL (   13861 calls)

     PWSCF        :   2m17.34s CPU   2m20.73s WALL


   This run was terminated on:  19:43:28  12Jun2023            

=------------------------------------------------------------------------------=
   JOB DONE.
=------------------------------------------------------------------------------=
