   2   2   0   0
  0.1712417E+04  0.1121436E-08  0.1121436E-08  0.3144561E-08  0.5000000E-15
  1.000000000000000E-004
  CAR 
 Pt                                      
      2.79970353    -30.77830698  301     -8.95787024      1.00000000
    -30.778  0.0000E+00  0.0000E+00
    -30.666  0.0000E+00  0.0000E+00
    -30.554  0.0000E+00  0.0000E+00
    -30.443  0.0000E+00  0.0000E+00
    -30.331  0.0000E+00  0.0000E+00
    -30.219  0.0000E+00  0.0000E+00
    -30.107 -0.3985E-32 -0.4460E-33
    -29.995 -0.2021E-24 -0.2262E-25
    -29.883 -0.8178E-18 -0.9153E-19
    -29.771 -0.2521E-12 -0.2822E-13
    -29.659 -0.6133E-08 -0.6864E-09
    -29.547 -0.1090E-04 -0.1221E-05
    -29.435 -0.1170E-02 -0.1322E-03
    -29.323  0.4365E-02  0.3564E-03
    -29.211  0.6957E-01  0.8143E-02
    -29.099  0.1896E-01  0.1027E-01
    -28.987 -0.2315E-02  0.1001E-01
    -28.876 -0.5284E-04  0.1000E-01
    -28.764 -0.6216E-07  0.1000E-01
    -28.652 -0.5197E-11  0.1000E-01
    -28.540 -0.3968E-16  0.1000E-01
    -28.428  0.0000E+00  0.1000E-01
    -28.316  0.0000E+00  0.1000E-01
    -28.204  0.0000E+00  0.1000E-01
    -28.092  0.0000E+00  0.1000E-01
    -27.980  0.0000E+00  0.1000E-01
    -27.868  0.0000E+00  0.1000E-01
    -27.756  0.0000E+00  0.1000E-01
    -27.644  0.0000E+00  0.1000E-01
    -27.532  0.0000E+00  0.1000E-01
    -27.421  0.0000E+00  0.1000E-01
    -27.309  0.0000E+00  0.1000E-01
    -27.197  0.0000E+00  0.1000E-01
    -27.085  0.0000E+00  0.1000E-01
    -26.973  0.0000E+00  0.1000E-01
    -26.861  0.0000E+00  0.1000E-01
    -26.749  0.0000E+00  0.1000E-01
    -26.637  0.0000E+00  0.1000E-01
    -26.525  0.0000E+00  0.1000E-01
    -26.413  0.0000E+00  0.1000E-01
    -26.301  0.0000E+00  0.1000E-01
    -26.189  0.0000E+00  0.1000E-01
    -26.077  0.0000E+00  0.1000E-01
    -25.965  0.0000E+00  0.1000E-01
    -25.854  0.0000E+00  0.1000E-01
    -25.742  0.0000E+00  0.1000E-01
    -25.630  0.0000E+00  0.1000E-01
    -25.518  0.0000E+00  0.1000E-01
    -25.406  0.0000E+00  0.1000E-01
    -25.294  0.0000E+00  0.1000E-01
    -25.182  0.0000E+00  0.1000E-01
    -25.070  0.0000E+00  0.1000E-01
    -24.958  0.0000E+00  0.1000E-01
    -24.846  0.0000E+00  0.1000E-01
    -24.734  0.0000E+00  0.1000E-01
    -24.622  0.0000E+00  0.1000E-01
    -24.510  0.0000E+00  0.1000E-01
    -24.398  0.0000E+00  0.1000E-01
    -24.287  0.0000E+00  0.1000E-01
    -24.175  0.0000E+00  0.1000E-01
    -24.063  0.0000E+00  0.1000E-01
    -23.951  0.0000E+00  0.1000E-01
    -23.839  0.0000E+00  0.1000E-01
    -23.727  0.0000E+00  0.1000E-01
    -23.615  0.0000E+00  0.1000E-01
    -23.503  0.0000E+00  0.1000E-01
    -23.391  0.0000E+00  0.1000E-01
    -23.279  0.0000E+00  0.1000E-01
    -23.167  0.0000E+00  0.1000E-01
    -23.055  0.0000E+00  0.1000E-01
    -22.943  0.0000E+00  0.1000E-01
    -22.832  0.0000E+00  0.1000E-01
    -22.720  0.0000E+00  0.1000E-01
    -22.608  0.0000E+00  0.1000E-01
    -22.496  0.0000E+00  0.1000E-01
    -22.384  0.0000E+00  0.1000E-01
    -22.272  0.0000E+00  0.1000E-01
    -22.160  0.0000E+00  0.1000E-01
    -22.048  0.0000E+00  0.1000E-01
    -21.936  0.0000E+00  0.1000E-01
    -21.824  0.0000E+00  0.1000E-01
    -21.712  0.0000E+00  0.1000E-01
    -21.600  0.0000E+00  0.1000E-01
    -21.488  0.0000E+00  0.1000E-01
    -21.376  0.0000E+00  0.1000E-01
    -21.265  0.0000E+00  0.1000E-01
    -21.153  0.0000E+00  0.1000E-01
    -21.041  0.0000E+00  0.1000E-01
    -20.929  0.0000E+00  0.1000E-01
    -20.817  0.0000E+00  0.1000E-01
    -20.705  0.0000E+00  0.1000E-01
    -20.593  0.0000E+00  0.1000E-01
    -20.481  0.0000E+00  0.1000E-01
    -20.369  0.0000E+00  0.1000E-01
    -20.257  0.0000E+00  0.1000E-01
    -20.145  0.0000E+00  0.1000E-01
    -20.033  0.0000E+00  0.1000E-01
    -19.921  0.0000E+00  0.1000E-01
    -19.809  0.0000E+00  0.1000E-01
    -19.698  0.0000E+00  0.1000E-01
    -19.586  0.0000E+00  0.1000E-01
    -19.474  0.0000E+00  0.1000E-01
    -19.362  0.0000E+00  0.1000E-01
    -19.250  0.0000E+00  0.1000E-01
    -19.138  0.0000E+00  0.1000E-01
    -19.026  0.0000E+00  0.1000E-01
    -18.914  0.0000E+00  0.1000E-01
    -18.802  0.0000E+00  0.1000E-01
    -18.690  0.0000E+00  0.1000E-01
    -18.578  0.0000E+00  0.1000E-01
    -18.466  0.0000E+00  0.1000E-01
    -18.354  0.0000E+00  0.1000E-01
    -18.243  0.0000E+00  0.1000E-01
    -18.131  0.0000E+00  0.1000E-01
    -18.019  0.0000E+00  0.1000E-01
    -17.907  0.0000E+00  0.1000E-01
    -17.795  0.0000E+00  0.1000E-01
    -17.683  0.0000E+00  0.1000E-01
    -17.571  0.0000E+00  0.1000E-01
    -17.459  0.0000E+00  0.1000E-01
    -17.347  0.0000E+00  0.1000E-01
    -17.235  0.0000E+00  0.1000E-01
    -17.123  0.0000E+00  0.1000E-01
    -17.011  0.0000E+00  0.1000E-01
    -16.899  0.0000E+00  0.1000E-01
    -16.787  0.0000E+00  0.1000E-01
    -16.676  0.0000E+00  0.1000E-01
    -16.564  0.0000E+00  0.1000E-01
    -16.452  0.0000E+00  0.1000E-01
    -16.340  0.0000E+00  0.1000E-01
    -16.228  0.0000E+00  0.1000E-01
    -16.116  0.0000E+00  0.1000E-01
    -16.004  0.0000E+00  0.1000E-01
    -15.892  0.0000E+00  0.1000E-01
    -15.780  0.0000E+00  0.1000E-01
    -15.668  0.0000E+00  0.1000E-01
    -15.556  0.0000E+00  0.1000E-01
    -15.444  0.0000E+00  0.1000E-01
    -15.332  0.0000E+00  0.1000E-01
    -15.220  0.0000E+00  0.1000E-01
    -15.109  0.0000E+00  0.1000E-01
    -14.997  0.0000E+00  0.1000E-01
    -14.885 -0.5658E-31  0.1000E-01
    -14.773 -0.2010E-23  0.1000E-01
    -14.661 -0.5692E-17  0.1000E-01
    -14.549 -0.1223E-11  0.1000E-01
    -14.437 -0.2067E-07  0.1000E-01
    -14.325 -0.2519E-04  0.9997E-02
    -14.213 -0.1732E-02  0.9803E-02
    -14.101  0.1078E-01  0.1101E-01
    -13.989  0.7167E-01  0.1903E-01
    -13.877  0.1038E-01  0.2019E-01
    -13.765 -0.1699E-02  0.2000E-01
    -13.654 -0.2411E-04  0.2000E-01
    -13.542 -0.1938E-07  0.2000E-01
    -13.430 -0.1124E-11  0.2000E-01
    -13.318  0.0000E+00  0.2000E-01
    -13.206  0.0000E+00  0.2000E-01
    -13.094  0.0000E+00  0.2000E-01
    -12.982  0.0000E+00  0.2000E-01
    -12.870  0.0000E+00  0.2000E-01
    -12.758  0.0000E+00  0.2000E-01
    -12.646 -0.6782E-36  0.2000E-01
    -12.534 -0.1149E-27  0.2000E-01
    -12.422 -0.1558E-20  0.2000E-01
    -12.310 -0.1629E-14  0.2000E-01
    -12.198 -0.1355E-09  0.2000E-01
    -12.087 -0.8498E-06  0.2000E-01
    -11.975 -0.3656E-03  0.1996E-01
    -11.863 -0.5955E-02  0.1929E-01
    -11.751  0.7635E-01  0.2784E-01
    -11.639  0.1130E+00  0.4048E-01
    -11.527 -0.3319E-02  0.4011E-01
    -11.415 -0.9823E-03  0.4000E-01
    -11.303 -0.4383E-05  0.4000E-01
    -11.191 -0.1279E-08  0.4000E-01
    -11.079 -0.2778E-13  0.4000E-01
    -10.967  0.0000E+00  0.4000E-01
    -10.855  0.0000E+00  0.4000E-01
    -10.743  0.0000E+00  0.4000E-01
    -10.632  0.0000E+00  0.4000E-01
    -10.520  0.0000E+00  0.4000E-01
    -10.408  0.0000E+00  0.4000E-01
    -10.296  0.0000E+00  0.4000E-01
    -10.184  0.0000E+00  0.4000E-01
    -10.072  0.0000E+00  0.4000E-01
     -9.960  0.0000E+00  0.4000E-01
     -9.848 -0.1252E-28  0.4000E-01
     -9.736 -0.2108E-21  0.4000E-01
     -9.624 -0.2724E-15  0.4000E-01
     -9.512 -0.2840E-10  0.4000E-01
     -9.400 -0.2228E-06  0.4000E-01
     -9.288 -0.1215E-03  0.3999E-01
     -9.176 -0.2881E-02  0.3966E-01
     -9.065  0.3115E-01  0.4315E-01
     -8.953  0.6213E-01  0.5010E-01
     -8.841 -0.2506E-03  0.5008E-01
     -8.729 -0.6789E-03  0.5000E-01
     -8.617 -0.3887E-05  0.5000E-01
     -8.505 -0.1422E-08  0.5000E-01
     -8.393 -0.3847E-13  0.5000E-01
     -8.281  0.0000E+00  0.5000E-01
     -8.169  0.0000E+00  0.5000E-01
     -8.057  0.0000E+00  0.5000E-01
     -7.945  0.0000E+00  0.5000E-01
     -7.833  0.0000E+00  0.5000E-01
     -7.721  0.0000E+00  0.5000E-01
     -7.609  0.0000E+00  0.5000E-01
     -7.498  0.0000E+00  0.5000E-01
     -7.386  0.0000E+00  0.5000E-01
     -7.274  0.0000E+00  0.5000E-01
     -7.162  0.0000E+00  0.5000E-01
     -7.050  0.0000E+00  0.5000E-01
     -6.938  0.0000E+00  0.5000E-01
     -6.826  0.0000E+00  0.5000E-01
     -6.714  0.0000E+00  0.5000E-01
     -6.602  0.0000E+00  0.5000E-01
     -6.490  0.0000E+00  0.5000E-01
     -6.378  0.0000E+00  0.5000E-01
     -6.266  0.0000E+00  0.5000E-01
     -6.154  0.0000E+00  0.5000E-01
     -6.043  0.0000E+00  0.5000E-01
     -5.931  0.0000E+00  0.5000E-01
     -5.819  0.0000E+00  0.5000E-01
     -5.707  0.0000E+00  0.5000E-01
     -5.595  0.0000E+00  0.5000E-01
     -5.483  0.0000E+00  0.5000E-01
     -5.371  0.0000E+00  0.5000E-01
     -5.259  0.0000E+00  0.5000E-01
     -5.147  0.0000E+00  0.5000E-01
     -5.035  0.0000E+00  0.5000E-01
     -4.923  0.0000E+00  0.5000E-01
     -4.811  0.0000E+00  0.5000E-01
     -4.699  0.0000E+00  0.5000E-01
     -4.587  0.0000E+00  0.5000E-01
     -4.476  0.0000E+00  0.5000E-01
     -4.364  0.0000E+00  0.5000E-01
     -4.252  0.0000E+00  0.5000E-01
     -4.140  0.0000E+00  0.5000E-01
     -4.028  0.0000E+00  0.5000E-01
     -3.916  0.0000E+00  0.5000E-01
     -3.804  0.0000E+00  0.5000E-01
     -3.692  0.0000E+00  0.5000E-01
     -3.580  0.0000E+00  0.5000E-01
     -3.468  0.0000E+00  0.5000E-01
     -3.356  0.0000E+00  0.5000E-01
     -3.244  0.0000E+00  0.5000E-01
     -3.132  0.0000E+00  0.5000E-01
     -3.020 -0.3443E-33  0.5000E-01
     -2.909 -0.2639E-25  0.5000E-01
     -2.797 -0.1615E-18  0.5000E-01
     -2.685 -0.7563E-13  0.5000E-01
     -2.573 -0.2805E-08  0.5000E-01
     -2.461 -0.7698E-05  0.5000E-01
     -2.349 -0.1350E-02  0.4985E-01
     -2.237 -0.5614E-03  0.4979E-01
     -2.125  0.1241E+00  0.6367E-01
     -2.013  0.6255E-01  0.7067E-01
     -1.901 -0.5768E-02  0.7003E-01
     -1.789 -0.2449E-03  0.7000E-01
     -1.677 -0.4509E-06  0.7000E-01
     -1.565 -0.5773E-10  0.7000E-01
     -1.454 -0.5567E-15  0.7000E-01
     -1.342  0.0000E+00  0.7000E-01
     -1.230  0.0000E+00  0.7000E-01
     -1.118 -0.4482E-34  0.7000E-01
     -1.006 -0.2851E-26  0.7000E-01
     -0.894 -0.1448E-19  0.7000E-01
     -0.782 -0.5615E-14  0.7000E-01
     -0.670 -0.1724E-09  0.7000E-01
     -0.558 -0.3926E-06  0.7000E-01
     -0.446 -0.6079E-04  0.6999E-01
     -0.334 -0.4387E-03  0.6994E-01
     -0.222  0.6696E-02  0.7069E-01
     -0.110  0.2667E-01  0.7368E-01
      0.002  0.2003E-01  0.7592E-01
      0.113  0.4626E-01  0.8110E-01
      0.225  0.6271E-01  0.8812E-01
      0.337  0.3962E-01  0.9255E-01
      0.449  0.9125E-01  0.1028E+00
      0.561  0.1133E+00  0.1154E+00
      0.673  0.8219E-01  0.1246E+00
      0.785  0.9247E-01  0.1350E+00
      0.897  0.9355E-01  0.1455E+00
      1.009  0.8850E-01  0.1554E+00
      1.121  0.2915E-01  0.1586E+00
      1.233  0.7309E-02  0.1595E+00
      1.345  0.4860E-02  0.1600E+00
      1.457  0.1254E-03  0.1600E+00
      1.569 -0.7576E-04  0.1600E+00
      1.680 -0.6869E-06  0.1600E+00
      1.792 -0.3860E-09  0.1600E+00
      1.904 -0.1589E-13  0.1600E+00
      2.016  0.0000E+00  0.1600E+00
      2.128  0.0000E+00  0.1600E+00
      2.240  0.0000E+00  0.1600E+00
      2.352  0.0000E+00  0.1600E+00
      2.464  0.0000E+00  0.1600E+00
      2.576  0.0000E+00  0.1600E+00
      2.688  0.0000E+00  0.1600E+00
      2.800  0.0000E+00  0.1600E+00
