    2    2  200    1
  0.1712417E+04  0.1121436E-08  0.1121436E-08  0.3144561E-08  0.5000000E-15
  1.000000000000000E-004
  CAR 
 Pt                                      
     10     10     16
 
  0.0000000E+00  0.0000000E+00  0.0000000E+00  0.6250000E-01
    1      -29.252034   1.000000
    2      -14.045750   1.000000
    3      -11.738320   1.000000
    4      -11.737736   1.000000
    5       -9.042126   1.000149
    6       -2.147524   0.000000
    7       -2.146921   0.000000
    8       -0.252893   0.000000
    9        0.076346   0.000000
   10        0.093412   0.000000
   11        0.481574   0.000000
   12        0.525723   0.000000
   13        1.094882   0.000000
   14        1.111967   0.000000
   15        1.185674   0.000000
   16        1.273430   0.000000
 
  0.2500000E+00 -0.1294993E-16  0.0000000E+00  0.1250000E+00
    1      -29.251930   1.000000
    2      -14.045678   1.000000
    3      -11.738146   1.000000
    4      -11.737489   1.000000
    5       -9.042050   0.999982
    6       -2.147332   0.000000
    7       -2.146942   0.000000
    8       -0.158686   0.000000
    9        0.174211   0.000000
   10        0.191491   0.000000
   11        0.559239   0.000000
   12        0.619926   0.000000
   13        0.652337   0.000000
   14        0.949808   0.000000
   15        0.969278   0.000000
   16        0.988338   0.000000
 
  0.5000000E+00 -0.2589986E-16  0.0000000E+00  0.6250000E-01
    1      -29.251943   1.000000
    2      -14.045643   1.000000
    3      -11.738144   1.000000
    4      -11.737598   1.000000
    5       -9.042017   0.999908
    6       -2.147695   0.000000
    7       -2.147336   0.000000
    8        0.051262   0.000000
    9        0.230936   0.000000
   10        0.441876   0.000000
   11        0.470015   0.000000
   12        0.487089   0.000000
   13        0.531464   0.000000
   14        0.820641   0.000000
   15        0.864964   0.000000
   16        0.902633   0.000000
 
  0.0000000E+00  0.2500000E+00  0.0000000E+00  0.1250000E+00
    1      -29.251916   1.000000
    2      -14.045683   1.000000
    3      -11.738127   1.000000
    4      -11.737489   1.000000
    5       -9.042044   0.999967
    6       -2.147411   0.000000
    7       -2.146869   0.000000
    8       -0.157496   0.000000
    9        0.174452   0.000000
   10        0.191548   0.000000
   11        0.562476   0.000000
   12        0.621379   0.000000
   13        0.649434   0.000000
   14        0.944649   0.000000
   15        0.971528   0.000000
   16        0.989533   0.000000
 
  0.2500000E+00  0.2500000E+00  0.0000000E+00  0.1250000E+00
    1      -29.251933   1.000000
    2      -14.045677   1.000000
    3      -11.738108   1.000000
    4      -11.737536   1.000000
    5       -9.042049   0.999979
    6       -2.147513   0.000000
    7       -2.146727   0.000000
    8       -0.158532   0.000000
    9        0.174237   0.000000
   10        0.191493   0.000000
   11        0.559262   0.000000
   12        0.620152   0.000000
   13        0.650743   0.000000
   14        0.947724   0.000000
   15        0.968977   0.000000
   16        0.988330   0.000000
 
  0.5000000E+00  0.2500000E+00  0.0000000E+00  0.1250000E+00
    1      -29.251968   1.000000
    2      -14.045721   1.000000
    3      -11.738209   1.000000
    4      -11.737597   1.000000
    5       -9.042108   1.000108
    6       -2.147872   0.000000
    7       -2.147213   0.000000
    8        0.016902   0.000000
    9        0.350510   0.000000
   10        0.384730   0.000000
   11        0.427237   0.000000
   12        0.516246   0.000000
   13        0.714016   0.000000
   14        0.767537   0.000000
   15        0.784272   0.000000
   16        0.814936   0.000000
 
 -0.2500000E+00  0.2500000E+00  0.0000000E+00  0.1250000E+00
    1      -29.251963   1.000000
    2      -14.045718   1.000000
    3      -11.738193   1.000000
    4      -11.737655   1.000000
    5       -9.042065   1.000014
    6       -2.147682   0.000000
    7       -2.147395   0.000000
    8        0.019182   0.000000
    9        0.350872   0.000000
   10        0.384844   0.000000
   11        0.428488   0.000000
   12        0.513396   0.000000
   13        0.714251   0.000000
   14        0.767603   0.000000
   15        0.784023   0.000000
   16        0.815399   0.000000
 
  0.0000000E+00  0.5000000E+00  0.0000000E+00  0.6250000E-01
    1      -29.251929   1.000000
    2      -14.045649   1.000000
    3      -11.738153   1.000000
    4      -11.737550   1.000000
    5       -9.042012   0.999897
    6       -2.148053   0.000000
    7       -2.147232   0.000000
    8        0.056682   0.000000
    9        0.231458   0.000000
   10        0.440980   0.000000
   11        0.470249   0.000000
   12        0.487248   0.000000
   13        0.532158   0.000000
   14        0.814399   0.000000
   15        0.860576   0.000000
   16        0.929134   0.000000
 
  0.2500000E+00  0.5000000E+00  0.0000000E+00  0.1250000E+00
    1      -29.251963   1.000000
    2      -14.045718   1.000000
    3      -11.738248   1.000000
    4      -11.737602   1.000000
    5       -9.042067   1.000018
    6       -2.148032   0.000000
    7       -2.147039   0.000000
    8        0.019797   0.000000
    9        0.350145   0.000000
   10        0.384751   0.000000
   11        0.425711   0.000000
   12        0.516175   0.000000
   13        0.714163   0.000000
   14        0.767613   0.000000
   15        0.784172   0.000000
   16        0.814939   0.000000
 
  0.5000000E+00  0.5000000E+00  0.0000000E+00  0.6250000E-01
    1      -29.251945   1.000000
    2      -14.045643   1.000000
    3      -11.738184   1.000000
    4      -11.737564   1.000000
    5       -9.042017   0.999909
    6       -2.148061   0.000000
    7       -2.146942   0.000000
    8        0.053345   0.000000
    9        0.227951   0.000000
   10        0.442079   0.000000
   11        0.470083   0.000000
   12        0.486867   0.000000
   13        0.531142   0.000000
   14        0.820983   0.000000
   15        0.862845   0.000000
   16        0.901501   0.000000
