       N       E                     dE             d eps       ncg     rms          rms(c)
DAV:   1     0.616361698523E+02    0.61636E+02   -0.17781E+03   456   0.223E+02
DAV:   2    -0.383554267572E+01   -0.65472E+02   -0.62859E+02   512   0.692E+01
DAV:   3    -0.139114491745E+02   -0.10076E+02   -0.10063E+02   616   0.341E+01
DAV:   4    -0.140176573084E+02   -0.10621E+00   -0.10616E+00   392   0.353E+00
DAV:   5    -0.140183103428E+02   -0.65303E-03   -0.65301E-03   520   0.229E-01    0.599E+00
RMM:   6    -0.136902132748E+02    0.32810E+00   -0.26517E+00   320   0.663E+00    0.457E+00
RMM:   7    -0.134250296611E+02    0.26518E+00   -0.36080E-01   320   0.269E+00    0.186E+00
RMM:   8    -0.133968581691E+02    0.28171E-01   -0.80875E-02   320   0.112E+00    0.174E-01
RMM:   9    -0.133974684070E+02   -0.61024E-03   -0.32613E-03   330   0.232E-01    0.121E-01
RMM:  10    -0.133989345581E+02   -0.14662E-02   -0.12794E-03   320   0.180E-01    0.549E-02
RMM:  11    -0.133991668712E+02   -0.23231E-03   -0.20139E-04   320   0.508E-02    0.215E-02
RMM:  12    -0.134005477673E+02   -0.13809E-02   -0.24430E-04   310   0.490E-02    0.128E-02
RMM:  13    -0.134010626905E+02   -0.51492E-03   -0.46115E-05   310   0.224E-02    0.589E-03
RMM:  14    -0.134016386590E+02   -0.57597E-03   -0.10141E-04   310   0.286E-02    0.582E-03
RMM:  15    -0.134018663714E+02   -0.22771E-03   -0.15227E-05   285   0.126E-02    0.318E-03
RMM:  16    -0.134019019141E+02   -0.35543E-04   -0.33419E-06   270   0.660E-03    0.211E-03
RMM:  17    -0.134019416982E+02   -0.39784E-04   -0.20297E-06   270   0.500E-03    0.772E-04
RMM:  18    -0.134019476508E+02   -0.59526E-05   -0.35215E-07   231   0.232E-03
   1 F= -.13401948E+02 E0= -.13403880E+02  d E =-.134019E+02
       N       E                     dE             d eps       ncg     rms          rms(c)
DAV:   1     0.782775938742E+03    0.79618E+03   -0.27648E+03   456   0.258E+02    0.270E+02
RMM:   2     0.779029951488E+03   -0.37460E+01   -0.10145E+02   320   0.604E+01    0.113E+02
RMM:   3     0.784701227258E+03    0.56713E+01   -0.72785E+00   320   0.162E+01    0.138E+01
RMM:   4     0.784848566190E+03    0.14734E+00   -0.14172E-01   327   0.207E+00    0.577E+00
RMM:   5     0.785006966274E+03    0.15840E+00   -0.28177E-01   330   0.299E+00    0.490E+00
RMM:   6     0.785006493636E+03   -0.47264E-03   -0.88293E-03   330   0.409E-01    0.474E-01
RMM:   7     0.785010843800E+03    0.43502E-02   -0.12087E-02   330   0.309E-01    0.559E-01
RMM:   8     0.785010266172E+03   -0.57763E-03   -0.45292E-03   336   0.150E-01    0.877E-01
RMM:   9     0.785008541123E+03   -0.17250E-02   -0.17610E-03   330   0.117E-01    0.292E-01
RMM:  10     0.785006287508E+03   -0.22536E-02   -0.21433E-03   325   0.973E-02    0.295E-01
RMM:  11     0.785004866019E+03   -0.14215E-02   -0.10917E-03   290   0.488E-02    0.196E-02
RMM:  12     0.785003995369E+03   -0.87065E-03   -0.63663E-04   289   0.412E-02    0.110E-02
RMM:  13     0.785003743316E+03   -0.25205E-03   -0.87088E-05   280   0.213E-02    0.234E-02
RMM:  14     0.785003557889E+03   -0.18543E-03   -0.48926E-05   280   0.147E-02    0.334E-02
RMM:  15     0.785003487333E+03   -0.70556E-04   -0.13956E-05   280   0.953E-03    0.161E-02
RMM:  16     0.785003453123E+03   -0.34210E-04   -0.55344E-06   280   0.666E-03    0.142E-02
RMM:  17     0.785003443547E+03   -0.95762E-05   -0.86788E-07   211   0.246E-03
   2 F= 0.78500344E+03 E0= 0.78500150E+03  d E =0.798405E+03
       N       E                     dE             d eps       ncg     rms          rms(c)
DAV:   1    -0.154108141119E+02   -0.80041E+03   -0.23736E+03   424   0.240E+02    0.160E+02
RMM:   2    -0.173182694424E+02   -0.19075E+01   -0.78742E+01   320   0.454E+01    0.105E+02
RMM:   3    -0.138385765592E+02    0.34797E+01   -0.10082E+01   320   0.168E+01    0.159E+01
RMM:   4    -0.135207356140E+02    0.31784E+00   -0.44539E-01   320   0.312E+00    0.123E+00
RMM:   5    -0.134255191306E+02    0.95216E-01   -0.23406E-01   320   0.180E+00    0.777E-01
RMM:   6    -0.133924584828E+02    0.33061E-01   -0.66047E-02   320   0.933E-01    0.378E-01
RMM:   7    -0.133969093321E+02   -0.44508E-02   -0.12945E-02   320   0.570E-01    0.225E-01
RMM:   8    -0.133880741101E+02    0.88352E-02   -0.15251E-02   320   0.417E-01    0.106E-01
RMM:   9    -0.134027594719E+02   -0.14685E-01   -0.86469E-03   320   0.299E-01    0.124E-01
RMM:  10    -0.134150275598E+02   -0.12268E-01   -0.43074E-03   320   0.263E-01    0.409E-02
RMM:  11    -0.134211558464E+02   -0.61283E-02   -0.10269E-03   320   0.102E-01    0.202E-02
RMM:  12    -0.134253171582E+02   -0.41613E-02   -0.71055E-04   310   0.784E-02    0.103E-02
RMM:  13    -0.134266873925E+02   -0.13702E-02   -0.14611E-04   310   0.349E-02    0.544E-03
RMM:  14    -0.134270230040E+02   -0.33561E-03   -0.22729E-05   300   0.129E-02    0.366E-03
RMM:  15    -0.134273134729E+02   -0.29047E-03   -0.75488E-06   280   0.838E-03    0.164E-03
RMM:  16    -0.134273636466E+02   -0.50174E-04   -0.12922E-06   270   0.474E-03    0.195E-03
RMM:  17    -0.134273822075E+02   -0.18561E-04   -0.28667E-07   250   0.250E-03    0.693E-04
RMM:  18    -0.134273941722E+02   -0.11965E-04   -0.66504E-07   269   0.333E-03    0.111E-03
RMM:  19    -0.134273995503E+02   -0.53780E-05   -0.13510E-07   225   0.220E-03
   3 F= -.13427400E+02 E0= -.13429332E+02  d E =-.254519E-01
       N       E                     dE             d eps       ncg     rms          rms(c)
DAV:   1    -0.134525831329E+02   -0.25189E-01   -0.11363E-02   376   0.612E-01    0.370E-02
RMM:   2    -0.134525889974E+02   -0.58645E-05   -0.24250E-04   320   0.770E-02    0.195E-02
RMM:   3    -0.134525849157E+02    0.40817E-05   -0.16377E-05   290   0.200E-02
   4 F= -.13452585E+02 E0= -.13454518E+02  d E =-.506373E-01
       N       E                     dE             d eps       ncg     rms          rms(c)
DAV:   1     0.255779328734E+01    0.16010E+02   -0.80472E+02   320   0.163E+02    0.112E+01
RMM:   2     0.258498977217E+01    0.27196E-01   -0.24495E+01   320   0.302E+01    0.960E+00
RMM:   3     0.379978835242E+01    0.12148E+01   -0.20025E+00   320   0.704E+00    0.481E+00
RMM:   4     0.396127676830E+01    0.16149E+00   -0.76643E-01   320   0.398E+00    0.141E+00
RMM:   5     0.395503512143E+01   -0.62416E-02   -0.38457E-02   320   0.958E-01    0.338E-01
RMM:   6     0.395188143144E+01   -0.31537E-02   -0.35953E-03   320   0.322E-01    0.980E-02
RMM:   7     0.394775393691E+01   -0.41275E-02   -0.18534E-03   320   0.182E-01    0.547E-02
RMM:   8     0.394527565197E+01   -0.24783E-02   -0.59136E-04   310   0.668E-02    0.562E-02
RMM:   9     0.394280392157E+01   -0.24717E-02   -0.12172E-03   320   0.129E-01    0.266E-02
RMM:  10     0.394181766312E+01   -0.98626E-03   -0.25580E-04   320   0.490E-02    0.735E-03
RMM:  11     0.394125755470E+01   -0.56011E-03   -0.54196E-05   280   0.157E-02    0.543E-03
RMM:  12     0.394111708827E+01   -0.14047E-03   -0.58168E-06   280   0.783E-03    0.255E-03
RMM:  13     0.394098804543E+01   -0.12904E-03   -0.69118E-06   280   0.791E-03    0.180E-03
RMM:  14     0.394097389643E+01   -0.14149E-04   -0.46664E-07   260   0.307E-03    0.836E-04
RMM:  15     0.394094160665E+01   -0.32290E-04   -0.15850E-06   270   0.446E-03    0.129E-03
RMM:  16     0.394094008499E+01   -0.15217E-05   -0.10479E-07   227   0.197E-03
   5 F= 0.39409401E+01 E0= 0.39390074E+01  d E =0.173429E+02
       N       E                     dE             d eps       ncg     rms          rms(c)
DAV:   1    -0.165852928452E+02   -0.20526E+02   -0.73652E+02   480   0.162E+02    0.138E+01
RMM:   2    -0.143988253399E+02    0.21865E+01   -0.15532E+01   320   0.205E+01    0.710E+00
RMM:   3    -0.138380617272E+02    0.56076E+00   -0.31388E+00   320   0.743E+00    0.259E+00
RMM:   4    -0.138381186398E+02   -0.56913E-04   -0.25825E-01   320   0.238E+00    0.111E+00
RMM:   5    -0.138290827372E+02    0.90359E-02   -0.22800E-02   320   0.663E-01    0.215E-01
RMM:   6    -0.138290736725E+02    0.90648E-05   -0.80328E-03   320   0.368E-01    0.905E-02
RMM:   7    -0.138302212892E+02   -0.11476E-02   -0.16439E-03   320   0.191E-01    0.781E-02
RMM:   8    -0.138311333288E+02   -0.91204E-03   -0.88923E-04   320   0.110E-01    0.752E-02
RMM:   9    -0.138323882438E+02   -0.12549E-02   -0.83372E-04   320   0.117E-01    0.570E-02
RMM:  10    -0.138326127424E+02   -0.22450E-03   -0.80684E-05   320   0.334E-02    0.118E-02
RMM:  11    -0.138330394670E+02   -0.42672E-03   -0.49162E-05   310   0.237E-02    0.212E-02
RMM:  12    -0.138332241175E+02   -0.18465E-03   -0.68968E-05   320   0.348E-02    0.170E-02
RMM:  13    -0.138333551886E+02   -0.13107E-03   -0.82484E-06   270   0.129E-02    0.308E-03
RMM:  14    -0.138334123704E+02   -0.57182E-04   -0.63594E-06   270   0.102E-02    0.560E-03
RMM:  15    -0.138334494178E+02   -0.37047E-04   -0.20280E-06   270   0.594E-03    0.857E-04
RMM:  16    -0.138334637050E+02   -0.14287E-04   -0.64802E-07   270   0.307E-03    0.896E-04
RMM:  17    -0.138334667519E+02   -0.30469E-05   -0.22975E-08   214   0.136E-03
   6 F= -.13833467E+02 E0= -.13835399E+02  d E =-.431519E+00
       N       E                     dE             d eps       ncg     rms          rms(c)
DAV:   1    -0.141021024878E+02   -0.26864E+00   -0.16466E+02   328   0.759E+01    0.651E+00
RMM:   2    -0.142401637284E+02   -0.13806E+00   -0.44897E+00   320   0.117E+01    0.258E+00
RMM:   3    -0.140819978566E+02    0.15817E+00   -0.26881E-01   320   0.249E+00    0.116E+00
RMM:   4    -0.140622654897E+02    0.19732E-01   -0.14815E-01   320   0.165E+00    0.342E-01
RMM:   5    -0.140634660811E+02   -0.12006E-02   -0.26596E-03   320   0.252E-01    0.180E-01
RMM:   6    -0.140649035608E+02   -0.14375E-02   -0.22020E-03   320   0.187E-01    0.518E-02
RMM:   7    -0.140661153128E+02   -0.12118E-02   -0.98391E-04   320   0.122E-01    0.514E-02
RMM:   8    -0.140673700701E+02   -0.12548E-02   -0.44874E-04   320   0.794E-02    0.105E-02
RMM:   9    -0.140682395685E+02   -0.86950E-03   -0.11327E-04   310   0.344E-02    0.147E-02
RMM:  10    -0.140687420103E+02   -0.50244E-03   -0.11508E-04   310   0.302E-02    0.365E-03
RMM:  11    -0.140690271508E+02   -0.28514E-03   -0.25295E-05   280   0.125E-02    0.288E-03
RMM:  12    -0.140690432967E+02   -0.16146E-04   -0.13216E-06   260   0.416E-03    0.210E-03
RMM:  13    -0.140691092839E+02   -0.65987E-04   -0.31338E-06   270   0.587E-03    0.121E-03
RMM:  14    -0.140691115449E+02   -0.22610E-05   -0.29665E-07   230   0.205E-03
   7 F= -.14069112E+02 E0= -.14071044E+02  d E =-.667164E+00
       N       E                     dE             d eps       ncg     rms          rms(c)
DAV:   1    -0.147955304795E+02   -0.72642E+00   -0.65865E+01   320   0.482E+01    0.355E+00
RMM:   2    -0.146719695747E+02    0.12356E+00   -0.10376E+00   320   0.572E+00    0.167E+00
RMM:   3    -0.146298979996E+02    0.42072E-01   -0.21946E-01   320   0.204E+00    0.533E-01
RMM:   4    -0.146319631630E+02   -0.20652E-02   -0.92219E-03   320   0.425E-01    0.250E-01
RMM:   5    -0.146330464881E+02   -0.10833E-02   -0.74797E-04   320   0.123E-01    0.754E-02
RMM:   6    -0.146333415192E+02   -0.29503E-03   -0.46459E-04   320   0.875E-02    0.194E-02
RMM:   7    -0.146338615973E+02   -0.52008E-03   -0.14503E-04   320   0.465E-02    0.173E-02
RMM:   8    -0.146341643532E+02   -0.30276E-03   -0.65417E-05   320   0.290E-02    0.871E-03
RMM:   9    -0.146345601681E+02   -0.39581E-03   -0.67892E-05   310   0.243E-02    0.531E-03
RMM:  10    -0.146345949093E+02   -0.34741E-04   -0.29724E-06   270   0.727E-03    0.233E-03
RMM:  11    -0.146347099139E+02   -0.11500E-03   -0.91303E-06   280   0.913E-03    0.224E-03
RMM:  12    -0.146347319885E+02   -0.22075E-04   -0.81426E-07   260   0.365E-03    0.969E-04
RMM:  13    -0.146347600790E+02   -0.28091E-04   -0.15283E-06   270   0.424E-03    0.108E-03
RMM:  14    -0.146347637790E+02   -0.37000E-05   -0.11182E-07   230   0.154E-03
   8 F= -.14634764E+02 E0= -.14636696E+02  d E =-.123282E+01
       N       E                     dE             d eps       ncg     rms          rms(c)
DAV:   1    -0.147816141321E+02   -0.14685E+00   -0.15514E+01   320   0.235E+01    0.188E+00
RMM:   2    -0.147803166618E+02    0.12975E-02   -0.35696E-01   320   0.316E+00    0.806E-01
RMM:   3    -0.147665726167E+02    0.13744E-01   -0.34753E-02   320   0.849E-01    0.318E-01
RMM:   4    -0.147664045635E+02    0.16805E-03   -0.71333E-03   320   0.351E-01    0.122E-01
RMM:   5    -0.147666801455E+02   -0.27558E-03   -0.19954E-04   320   0.701E-02    0.616E-02
RMM:   6    -0.147669257627E+02   -0.24562E-03   -0.23049E-04   320   0.599E-02    0.124E-02
RMM:   7    -0.147671595585E+02   -0.23380E-03   -0.35561E-05   310   0.210E-02    0.117E-02
RMM:   8    -0.147674477920E+02   -0.28823E-03   -0.29701E-05   280   0.181E-02    0.383E-03
RMM:   9    -0.147676556755E+02   -0.20788E-03   -0.18906E-05   280   0.124E-02    0.305E-03
RMM:  10    -0.147677416707E+02   -0.85995E-04   -0.91297E-06   280   0.849E-03    0.108E-03
RMM:  11    -0.147678007483E+02   -0.59078E-04   -0.35278E-06   260   0.535E-03    0.497E-04
RMM:  12    -0.147678100748E+02   -0.93265E-05   -0.57435E-07   230   0.278E-03
   9 F= -.14767810E+02 E0= -.14769743E+02  d E =-.136586E+01
       N       E                     dE             d eps       ncg     rms          rms(c)
DAV:   1    -0.147959219371E+02   -0.28121E-01   -0.17179E+00   432   0.782E+00    0.606E-01
RMM:   2    -0.147937870115E+02    0.21349E-02   -0.35282E-02   320   0.100E+00    0.275E-01
RMM:   3    -0.147926664612E+02    0.11206E-02   -0.50177E-03   320   0.314E-01    0.985E-02
RMM:   4    -0.147928253159E+02   -0.15885E-03   -0.44601E-04   320   0.903E-02    0.430E-02
RMM:   5    -0.147928865366E+02   -0.61221E-04   -0.13508E-05   280   0.198E-02    0.163E-02
RMM:   6    -0.147929180758E+02   -0.31539E-04   -0.18949E-05   310   0.175E-02    0.325E-03
RMM:   7    -0.147929517397E+02   -0.33664E-04   -0.28565E-06   270   0.646E-03    0.293E-03
RMM:   8    -0.147929910427E+02   -0.39303E-04   -0.37600E-06   270   0.640E-03    0.107E-03
RMM:   9    -0.147930194353E+02   -0.28393E-04   -0.21997E-06   260   0.415E-03    0.730E-04
RMM:  10    -0.147930309612E+02   -0.11526E-04   -0.94373E-07   260   0.318E-03    0.351E-04
RMM:  11    -0.147930390665E+02   -0.81053E-05   -0.23636E-07   230   0.245E-03
  10 F= -.14793039E+02 E0= -.14794972E+02  d E =-.139109E+01
       N       E                     dE             d eps       ncg     rms          rms(c)
DAV:   1    -0.147942509741E+02   -0.12200E-02   -0.45970E-02   432   0.128E+00    0.993E-02
RMM:   2    -0.147942003527E+02    0.50621E-04   -0.97905E-04   320   0.165E-01    0.448E-02
RMM:   3    -0.147941759716E+02    0.24381E-04   -0.12665E-04   320   0.502E-02    0.166E-02
RMM:   4    -0.147941786469E+02   -0.26753E-05   -0.12878E-05   280   0.155E-02
  11 F= -.14794179E+02 E0= -.14796111E+02  d E =-.139223E+01
