 vasp.5.4.4.18Apr17-6-g9f103f2a35 (build May 23 2022 10:35:18) complex          
  
 executed on           IFC18_impi date 2023.06.19  17:18:03
 running on   64 total cores
 distrk:  each k-point on   64 cores,    1 groups
 distr:  one band on NCORES_PER_BAND=   8 cores,    8 groups


--------------------------------------------------------------------------------------------------------


 INCAR:
 POTCAR:    PAW_PBE O 08Apr2002                   
 POTCAR:    PAW_PBE C 08Apr2002                   
 POTCAR:    PAW_PBE O 08Apr2002                   
   VRHFIN =O: s2p4                                                              
   LEXCH  = PE                                                                  
   EATOM  =   432.3788 eV,   31.7789 Ry                                         
                                                                                
   TITEL  = PAW_PBE O 08Apr2002                                                 
   LULTRA =        F    use ultrasoft PP ?                                      
   IUNSCR =        1    unscreen: 0-lin 1-nonlin 2-no                           
   RPACOR =    1.200    partial core radius                                     
   POMASS =   16.000; ZVAL   =    6.000    mass and valenz                      
   RCORE  =    1.520    outmost cutoff radius                                   
   RWIGS  =    1.550; RWIGS  =    0.820    wigner-seitz radius (au A)           
   ENMAX  =  400.000; ENMIN  =  300.000 eV                                      
   ICORE  =        2    local potential                                         
   LCOR   =        T    correct aug charges                                     
   LPAW   =        T    paw PP                                                  
   EAUG   =  605.392                                                            
   DEXC   =    0.000                                                            
   RMAX   =    1.553    core radius for proj-oper                               
   RAUG   =    1.300    factor for augmentation sphere                          
   RDEP   =    1.550    radius for radial grids                                 
   RDEPT  =    1.329    core radius for aug-charge                              
                                                                                
   Atomic configuration                                                         
    4 entries                                                                   
     n  l   j            E        occ.                                          
     1  0  0.50      -514.6923   2.0000                                         
     2  0  0.50       -23.9615   2.0000                                         
     2  1  0.50        -9.0305   4.0000                                         
     3  2  1.50        -9.5241   0.0000                                         
   Description                                                                  
     l       E           TYP  RCUT    TYP  RCUT                                 
     0    -23.9615318     23  1.200                                             
     0     -9.5240782     23  1.200                                             
     1     -9.0304911     23  1.520                                             
     1      8.1634956     23  1.520                                             
     2     -9.5240782      7  1.500                                             
  local pseudopotential read in
  partial core-charges read in
  partial kinetic energy density read in
  kinetic energy density of atom read in
  atomic valenz-charges read in
  non local Contribution for L=           0  read in
    real space projection operators read in
  non local Contribution for L=           0  read in
    real space projection operators read in
  non local Contribution for L=           1  read in
    real space projection operators read in
  non local Contribution for L=           1  read in
    real space projection operators read in
    PAW grid and wavefunctions read in
 
   number of l-projection  operators is LMAX  =           4
   number of lm-projection operators is LMMAX =           8
 
 POTCAR:    PAW_PBE C 08Apr2002                   
   VRHFIN =C: s2p2                                                              
   LEXCH  = PE                                                                  
   EATOM  =   147.1560 eV,   10.8157 Ry                                         
                                                                                
   TITEL  = PAW_PBE C 08Apr2002                                                 
   LULTRA =        F    use ultrasoft PP ?                                      
   IUNSCR =        1    unscreen: 0-lin 1-nonlin 2-no                           
   RPACOR =    1.200    partial core radius                                     
   POMASS =   12.011; ZVAL   =    4.000    mass and valenz                      
   RCORE  =    1.500    outmost cutoff radius                                   
   RWIGS  =    1.630; RWIGS  =    0.863    wigner-seitz radius (au A)           
   ENMAX  =  400.000; ENMIN  =  300.000 eV                                      
   ICORE  =        2    local potential                                         
   LCOR   =        T    correct aug charges                                     
   LPAW   =        T    paw PP                                                  
   EAUG   =  644.873                                                            
   DEXC   =    0.000                                                            
   RMAX   =    1.529    core radius for proj-oper                               
   RAUG   =    1.300    factor for augmentation sphere                          
   RDEP   =    1.501    radius for radial grids                                 
   RDEPT  =    1.300    core radius for aug-charge                              
                                                                                
   Atomic configuration                                                         
    4 entries                                                                   
     n  l   j            E        occ.                                          
     1  0  0.50      -273.3789   2.0000                                         
     2  0  0.50       -13.7508   2.0000                                         
     2  1  0.50        -5.2854   2.0000                                         
     3  2  1.50        -5.4423   0.0000                                         
   Description                                                                  
     l       E           TYP  RCUT    TYP  RCUT                                 
     0    -13.7508458     23  1.200                                             
     0     -8.2022199     23  1.200                                             
     1     -5.2854383     23  1.500                                             
     1     34.0145650     23  1.500                                             
     2     -5.4423304      7  1.500                                             
  local pseudopotential read in
  partial core-charges read in
  partial kinetic energy density read in
  atomic valenz-charges read in
  non local Contribution for L=           0  read in
    real space projection operators read in
  non local Contribution for L=           0  read in
    real space projection operators read in
  non local Contribution for L=           1  read in
    real space projection operators read in
  non local Contribution for L=           1  read in
    real space projection operators read in
    PAW grid and wavefunctions read in
 
   number of l-projection  operators is LMAX  =           4
   number of lm-projection operators is LMMAX =           8
 

 ----------------------------------------------------------------------------- 
|                                                                             |
|  ADVICE TO THIS USER RUNNING 'VASP/VAMP'   (HEAR YOUR MASTER'S VOICE ...):  |
|                                                                             |
|      You have a (more or less) 'small supercell' and for smaller cells      |
|      it is recommended  to use the reciprocal-space projection scheme!      |
|      The real space optimization is not  efficient for small cells and it   |
|      is also less accurate ...                                              |
|      Therefore set LREAL=.FALSE. in the  INCAR file                         |
|                                                                             |
 ----------------------------------------------------------------------------- 

 Optimization of the real space projectors (new method)

 maximal supplied QI-value         = 24.76
 optimisation between [QCUT,QGAM] = [ 10.15, 20.30] = [ 28.85,115.39] Ry 
 Optimized for a Real-space Cutoff    1.19 Angstroem

   l    n(q)    QCUT    max X(q) W(low)/X(q) W(high)/X(q)  e(spline) 
   0      7    10.150    20.381    0.86E-03    0.53E-03    0.15E-06
   0      7    10.150    15.268    0.92E-03    0.58E-03    0.15E-06
   1      7    10.150     5.964    0.13E-02    0.15E-02    0.11E-06
   1      7    10.150     5.382    0.10E-02    0.13E-02    0.10E-06
 Optimization of the real space projectors (new method)

 maximal supplied QI-value         = 25.13
 optimisation between [QCUT,QGAM] = [ 10.05, 20.36] = [ 28.30,116.06] Ry 
 Optimized for a Real-space Cutoff    1.12 Angstroem

   l    n(q)    QCUT    max X(q) W(low)/X(q) W(high)/X(q)  e(spline) 
   0      7    10.053   115.676    0.98E-03    0.17E-02    0.83E-07
   0      7    10.053    87.132    0.97E-03    0.17E-02    0.82E-07
   1      6    10.053     4.429    0.15E-02    0.82E-03    0.11E-06
   1      6    10.053     2.733    0.11E-02    0.55E-03    0.12E-06
  PAW_PBE O 08Apr2002                   :
 energy of atom  1       EATOM= -432.3788
 kinetic energy error for atom=    0.1156 (will be added to EATOM!!)
  PAW_PBE C 08Apr2002                   :
 energy of atom  2       EATOM= -147.1560
 kinetic energy error for atom=    0.0288 (will be added to EATOM!!)
 
 
 POSCAR:  O  C                                   
  positions in cartesian coordinates
  No initial velocities read in
 exchange correlation table for  LEXCH =        8
   RHO(1)=    0.500       N(1)  =     2000
   RHO(2)=  100.500       N(2)  =     4000

 VTST: version 3.2, (02/03/18)

 CHAIN: initializing optimizer
 
 OPT: Using VASP Conjugate-Gradient optimizer
 CHAIN: Read ICHAIN            0
 
 POSCAR:  O  C                                   
  positions in cartesian coordinates
  No initial velocities read in
 


--------------------------------------------------------------------------------------------------------


 ion  position               nearest neighbor table
   1  0.270  0.619  0.212-   2 1.34
   2  0.226  0.618  0.173-   1 1.34
 

IMPORTANT INFORMATION: All symmetrisations will be switched off!
NOSYMM: (Re-)initialisation of all symmetry stuff for point group C_1.

 
 
 KPOINTS: kpoints                                 

Automatic generation of k-mesh.
Space group operators:
 irot       det(A)        alpha          n_x          n_y          n_z        tau_x        tau_y        tau_z
    1     1.000000     0.000001     1.000000     0.000000     0.000000     0.000000     0.000000     0.000000
 
 Subroutine IBZKPT returns following result:
 ===========================================
 
 Found     10 irreducible k-points:
 
 Following reciprocal coordinates:
            Coordinates               Weight
  0.000000  0.000000  0.000000      1.000000
  0.250000 -0.000000  0.000000      2.000000
  0.500000 -0.000000  0.000000      1.000000
  0.000000  0.250000  0.000000      2.000000
  0.250000  0.250000  0.000000      2.000000
  0.500000  0.250000  0.000000      2.000000
 -0.250000  0.250000  0.000000      2.000000
  0.000000  0.500000  0.000000      1.000000
  0.250000  0.500000  0.000000      2.000000
  0.500000  0.500000  0.000000      1.000000
 
 Following cartesian coordinates:
            Coordinates               Weight
  0.000000  0.000000  0.000000      1.000000
  0.022293 -0.012871  0.000000      2.000000
  0.044586 -0.025742  0.000000      1.000000
  0.000000  0.025742  0.000000      2.000000
  0.022293  0.012871  0.000000      2.000000
  0.044586  0.000000  0.000000      2.000000
 -0.022293  0.038612  0.000000      2.000000
  0.000000  0.051483  0.000000      1.000000
  0.022293  0.038612  0.000000      2.000000
  0.044586  0.025742  0.000000      1.000000
 


--------------------------------------------------------------------------------------------------------




 Dimension of arrays:
   k-points           NKPTS =     10   k-points in BZ     NKDIM =     10   number of bands    NBANDS=     16
   number of dos      NEDOS =    301   number of ions     NIONS =      2
   non local maximal  LDIM  =      4   non local SUM 2l+1 LMDIM =      8
   total plane-waves  NPLWV = 501760
   max r-space proj   IRMAX =   1086   max aug-charges    IRDMAX=   1378
   dimension x,y,z NGX =    56 NGY =   56 NGZ =  160
   dimension x,y,z NGXF=    96 NGYF=   96 NGZF=  270
   support grid    NGXF=    96 NGYF=   96 NGZF=  270
   ions per type =               1   1
   NGX,Y,Z   is equivalent  to a cutoff of   8.30,  8.30,  8.46 a.u.
   NGXF,Y,Z  is equivalent  to a cutoff of  14.23, 14.23, 14.27 a.u.

 SYSTEM =  Pt                                      
 POSCAR =   O  C                                   

 Startparameter for this run:
   NWRITE =      2    write-flag & timer
   PREC   = med       normal or accurate (medium, high low for compatibility)
   ISTART =      0    job   : 0-new  1-cont  2-samecut
   ICHARG =      2    charge: 1-file 2-atom 10-const
   ISPIN  =      1    spin polarized calculation?
   LNONCOLLINEAR =      F non collinear calculations
   LSORBIT =      F    spin-orbit coupling
   INIWAV =      1    electr: 0-lowe 1-rand  2-diag
   LASPH  =      F    aspherical Exc in radial PAW
   METAGGA=      F    non-selfconsistent MetaGGA calc.

 Electronic Relaxation 1
   ENCUT  =  400.0 eV  29.40 Ry    5.42 a.u.  18.29 18.29 51.28*2*pi/ulx,y,z
   ENINI  =  400.0     initial cutoff
   ENAUG  =  644.9 eV  augmentation charge cutoff
   NELM   =    100;   NELMIN=  2; NELMDL= -5     # of ELM steps 
   EDIFF  = 0.1E-04   stopping-criterion for ELM
   LREAL  =      T    real-space projection
   NLSPLINE    = F    spline interpolate recip. space projectors
   LCOMPAT=      F    compatible to vasp.4.4
   GGA_COMPAT  = T    GGA compatible to vasp.4.4-vasp.4.6
   LMAXPAW     = -100 max onsite density
   LMAXMIX     =    2 max onsite mixed and CHGCAR
   VOSKOWN=      0    Vosko Wilk Nusair interpolation
   ROPT   =   -0.00200  -0.00200
 Ionic relaxation
   EDIFFG = 0.1E-03   stopping-criterion for IOM
   NSW    =    200    number of steps for IOM
   NBLOCK =      1;   KBLOCK =    200    inner block; outer block 
   IBRION =      2    ionic relax: 0-MD 1-quasi-New 2-CG
   NFREE  =      1    steps in history (QN), initial steepest desc. (CG)
   ISIF   =      1    stress and relaxation
   IWAVPR =     11    prediction:  0-non 1-charg 2-wave 3-comb
   ISYM   =      0    0-nonsym 1-usesym 2-fastsym
   LCORR  =      T    Harris-Foulkes like correction to forces

   POTIM  = 0.5000    time-step for ionic-motion
   TEIN   =    0.0    initial temperature
   TEBEG  =    0.0;   TEEND  =   0.0 temperature during run
   SMASS  =  -3.00    Nose mass-parameter (am)
   estimated Nose-frequenzy (Omega)   =  0.10E-29 period in steps =****** mass=  -0.287E-26a.u.
   SCALEE = 1.0000    scale energy and forces
   NPACO  =    256;   APACO  = 16.0  distance and # of slots for P.C.
   PSTRESS=    0.0 pullay stress

  Mass of Ions in am
   POMASS =  16.00 12.01
  Ionic Valenz
   ZVAL   =   6.00  4.00
  Atomic Wigner-Seitz radii
   RWIGS  =  -1.00 -1.00
  virtual crystal weights 
   VCA    =   1.00  1.00
   NELECT =      10.0000    total number of electrons
   NUPDOWN=      -1.0000    fix difference up-down

 DOS related values:
   EMIN   =  10.00;   EMAX   =-10.00  energy-range for DOS
   EFERMI =   0.00
   ISMEAR =     1;   SIGMA  =   0.10  broadening in eV -4-tet -1-fermi 0-gaus

 Electronic relaxation 2 (details)
   IALGO  =     68    algorithm
   LDIAG  =      T    sub-space diagonalisation (order eigenvalues)
   LSUBROT=      F    optimize rotation matrix (better conditioning)
   TURBO    =      0    0=normal 1=particle mesh
   IRESTART =      0    0=no restart 2=restart with 2 vectors
   NREBOOT  =      0    no. of reboots
   NMIN     =      0    reboot dimension
   EREF     =   0.00    reference energy to select bands
   IMIX   =      4    mixing-type and parameters
     AMIX     =   0.40;   BMIX     =  1.00
     AMIX_MAG =   1.60;   BMIX_MAG =  1.00
     AMIN     =   0.10
     WC   =   100.;   INIMIX=   1;  MIXPRE=   1;  MAXMIX= -45

 Intra band minimization:
   WEIMIN = 0.0010     energy-eigenvalue tresh-hold
   EBREAK =  0.16E-06  absolut break condition
   DEPER  =   0.30     relativ break condition  

   TIME   =   0.40     timestep for ELM

  volume/ion in A,a.u.               =    1712.42     11555.96
  Fermi-wavevector in a.u.,A,eV,Ry     =   0.233989  0.442175  0.744929  0.054751
  Thomas-Fermi vector in A             =   1.031458
 
 Write flags
   LWAVE        =      F    write WAVECAR
   LDOWNSAMPLE  =      F    k-point downsampling of WAVECAR
   LCHARG       =      F    write CHGCAR
   LVTOT        =      F    write LOCPOT, total local potential
   LVHAR        =      F    write LOCPOT, Hartree potential only
   LELF         =      F    write electronic localiz. function (ELF)
   LORBIT       =      0    0 simple, 1 ext, 2 COOP (PROOUT), +10 PAW based schemes


 Dipole corrections
   LMONO  =      F    monopole corrections only (constant potential shift)
   LDIPOL =      F    correct potential (dipole corrections)
   IDIPOL =      0    1-x, 2-y, 3-z, 4-all directions 
   EPSILON=  1.0000000 bulk dielectric constant

 Exchange correlation treatment:
   GGA     =    --    GGA type
   LEXCH   =     8    internal setting for exchange type
   VOSKOWN=      0    Vosko Wilk Nusair interpolation
   LHFCALC =     F    Hartree Fock is set to
   LHFONE  =     F    Hartree Fock one center treatment
   AEXX    =    0.0000 exact exchange contribution

 Linear response parameters
   LEPSILON=     F    determine dielectric tensor
   LRPA    =     F    only Hartree local field effects (RPA)
   LNABLA  =     F    use nabla operator in PAW spheres
   LVEL    =     F    velocity operator in full k-point grid
   LINTERFAST=   F  fast interpolation
   KINTER  =     0    interpolate to denser k-point grid
   CSHIFT  =0.1000    complex shift for real part using Kramers Kronig
   OMEGAMAX=  -1.0    maximum frequency
   DEG_THRESHOLD= 0.2000000E-02 threshold for treating states as degnerate
   RTIME   =   -0.100 relaxation time in fs
  (WPLASMAI=    0.000 imaginary part of plasma frequency in eV, 0.658/RTIME)
   DFIELD  = 0.0000000 0.0000000 0.0000000 field for delta impulse in time
 
 Orbital magnetization related:
   ORBITALMAG=     F  switch on orbital magnetization
   LCHIMAG   =     F  perturbation theory with respect to B field
   DQ        =  0.001000  dq finite difference perturbation B field
   LLRAUG    =     F  two centre corrections for induced B field



--------------------------------------------------------------------------------------------------------


 conjugate gradient relaxation of ions
 charge density and potential will be updated during run
 non-spin polarized calculation
 RMM-DIIS sequential band-by-band and
  variant of blocked Davidson during initial phase
 perform sub-space diagonalisation
    before iterative eigenvector-optimisation
 modified Broyden-mixing scheme, WC =      100.0
 initial mixing is a Kerker type mixing with AMIX =  0.4000 and BMIX =      1.0000
 Hartree-type preconditioning will be used
 using additional bands           11
 real space projection scheme for non local part
 use partial core corrections
 calculate Harris-corrections to forces 
   (improved forces if not selfconsistent)
 use gradient corrections 
 use of overlap-Matrix (Vanderbilt PP)
 Methfessel and Paxton  Order N= 1 SIGMA  =   0.10


--------------------------------------------------------------------------------------------------------


  energy-cutoff  :      400.00
  volume of cell :     3424.83
      direct lattice vectors                 reciprocal lattice vectors
    11.214359184  0.000000000  0.000000000     0.089171390 -0.051483119  0.000000000
     5.607178664  9.711919634  0.000000000     0.000000000  0.102966256  0.000000000
     0.000000000  0.000000000 31.445607950     0.000000000  0.000000000  0.031800943

  length of vectors
    11.214359184 11.214358455 31.445607950     0.102966249  0.102966256  0.031800943


 
 k-points in units of 2pi/SCALE and weight: kpoints                                 
   0.00000000  0.00000000  0.00000000       0.062
   0.02229285 -0.01287078  0.00000000       0.125
   0.04458570 -0.02574156  0.00000000       0.062
   0.00000000  0.02574156  0.00000000       0.125
   0.02229285  0.01287078  0.00000000       0.125
   0.04458570  0.00000000  0.00000000       0.125
  -0.02229285  0.03861234  0.00000000       0.125
   0.00000000  0.05148313  0.00000000       0.062
   0.02229285  0.03861235  0.00000000       0.125
   0.04458570  0.02574157  0.00000000       0.062
 
 k-points in reciprocal lattice and weights: kpoints                                 
   0.00000000  0.00000000  0.00000000       0.062
   0.25000000 -0.00000000  0.00000000       0.125
   0.50000000 -0.00000000  0.00000000       0.062
   0.00000000  0.25000000  0.00000000       0.125
   0.25000000  0.25000000  0.00000000       0.125
   0.50000000  0.25000000  0.00000000       0.125
  -0.25000000  0.25000000  0.00000000       0.125
   0.00000000  0.50000000  0.00000000       0.062
   0.25000000  0.50000000  0.00000000       0.125
   0.50000000  0.50000000  0.00000000       0.062
 
 position of ions in fractional coordinates (direct lattice) 
   0.27042371  0.61869003  0.21197415
   0.22612963  0.61779753  0.17251471
 
 position of ions in cartesian coordinates  (Angst):
   6.50173415  6.00866785  6.66565595
   6.00000000  6.00000000  5.42483000
 


--------------------------------------------------------------------------------------------------------


 k-point  1 :   0.0000 0.0000 0.0000  plane waves:   62299
 k-point  2 :   0.2500-0.0000 0.0000  plane waves:   62176
 k-point  3 :   0.5000-0.0000 0.0000  plane waves:   62174
 k-point  4 :   0.0000 0.2500 0.0000  plane waves:   62176
 k-point  5 :   0.2500 0.2500 0.0000  plane waves:   62176
 k-point  6 :   0.5000 0.2500 0.0000  plane waves:   62212
 k-point  7 :  -0.2500 0.2500 0.0000  plane waves:   62212
 k-point  8 :   0.0000 0.5000 0.0000  plane waves:   62174
 k-point  9 :   0.2500 0.5000 0.0000  plane waves:   62212
 k-point 10 :   0.5000 0.5000 0.0000  plane waves:   62174

 maximum and minimum number of plane-waves per node :      7818     7739

 maximum number of plane-waves:     62299
 maximum index in each direction: 
   IXMAX=   18   IYMAX=   18   IZMAX=   51
   IXMIN=  -18   IYMIN=  -18   IZMIN=  -51


 real space projection operators:
  total allocation   :        115.25 KBytes
  max/ min on nodes  :         15.56         12.62


 parallel 3D FFT for wavefunctions:
    minimum data exchange during FFTs selected (reduces bandwidth)
 parallel 3D FFT for charge:
    minimum data exchange during FFTs selected (reduces bandwidth)


 total amount of memory used by VASP MPI-rank0    41581. kBytes
=======================================================================

   base      :      30000. kBytes
   nonlr-proj:         52. kBytes
   fftplans  :       3595. kBytes
   grid      :       5433. kBytes
   one-center:          3. kBytes
   wavefun   :       2498. kBytes
 
     INWAV:  cpu time    0.0000: real time    0.0001
 Broyden mixing: mesh for mixing (old mesh)
   NGX = 37   NGY = 37   NGZ =103
  (NGX  = 96   NGY  = 96   NGZ  =270)
  gives a total of 141007 points

 initial charge density was supplied:
 charge density of overlapping atoms calculated
 number of electron      10.0000000 magnetization 
 keeping initial charge density in first step


--------------------------------------------------------------------------------------------------------


 Maximum index for non-local projection operator          119
 Maximum index for augmentation-charges            0 (set IRDMAX)


--------------------------------------------------------------------------------------------------------


 First call to EWALD:  gamma=   0.118
 Maximum number of real-space cells 4x 4x 2
 Maximum number of reciprocal cells 2x 2x 5

    FEWALD:  cpu time    0.0015: real time    0.0015


--------------------------------------- Iteration      1(   1)  ---------------------------------------


    POTLOK:  cpu time    0.0248: real time    0.0270
    SETDIJ:  cpu time    0.0011: real time    0.0015
     EDDAV:  cpu time    0.3687: real time    0.3711
       DOS:  cpu time    0.0006: real time    0.0007
    --------------------------------------------
      LOOP:  cpu time    0.3952: real time    0.4002

 eigenvalue-minimisations  :   456
 total energy-change (2. order) : 0.6163617E+02  (-0.1778143E+03)
 number of electron      10.0000000 magnetization 
 augmentation part       10.0000000 magnetization 

 Free energy of the ion-electron system (eV)
  ---------------------------------------------------
  alpha Z        PSCENC =         0.12758503
  Ewald energy   TEWEN  =       204.45162682
  -Hartree energ DENC   =      -680.14207647
  -exchange      EXHF   =         0.00000000
  -V(xc)+E(xc)   XCENC  =        38.42444518
  PAW double counting   =       455.07152327     -457.43959975
  entropy T*S    EENTRO =        -0.00433101
  eigenvalues    EBANDS =       -78.24342313
  atomic energy  EATOM  =       579.39041991
  Solvation  Ediel_sol  =         0.00000000
  ---------------------------------------------------
  free energy    TOTEN  =        61.63616985 eV

  energy without entropy =       61.64050086  energy(sigma->0) =       61.63761352


--------------------------------------------------------------------------------------------------------




--------------------------------------- Iteration      1(   2)  ---------------------------------------


     EDDAV:  cpu time    0.3848: real time    0.3858
       DOS:  cpu time    0.0002: real time    0.0002
    --------------------------------------------
      LOOP:  cpu time    0.3850: real time    0.3860

 eigenvalue-minimisations  :   512
 total energy-change (2. order) :-0.6547171E+02  (-0.6285941E+02)
 number of electron      10.0000000 magnetization 
 augmentation part       10.0000000 magnetization 

 Free energy of the ion-electron system (eV)
  ---------------------------------------------------
  alpha Z        PSCENC =         0.12758503
  Ewald energy   TEWEN  =       204.45162682
  -Hartree energ DENC   =      -680.14207647
  -exchange      EXHF   =         0.00000000
  -V(xc)+E(xc)   XCENC  =        38.42444518
  PAW double counting   =       455.07152327     -457.43959975
  entropy T*S    EENTRO =         0.00036237
  eigenvalues    EBANDS =      -143.71982903
  atomic energy  EATOM  =       579.39041991
  Solvation  Ediel_sol  =         0.00000000
  ---------------------------------------------------
  free energy    TOTEN  =        -3.83554268 eV

  energy without entropy =       -3.83590504  energy(sigma->0) =       -3.83566347


--------------------------------------------------------------------------------------------------------




--------------------------------------- Iteration      1(   3)  ---------------------------------------


     EDDAV:  cpu time    0.4439: real time    0.4466
       DOS:  cpu time    0.0002: real time    0.0002
    --------------------------------------------
      LOOP:  cpu time    0.4441: real time    0.4468

 eigenvalue-minimisations  :   616
 total energy-change (2. order) :-0.1007591E+02  (-0.1006252E+02)
 number of electron      10.0000000 magnetization 
 augmentation part       10.0000000 magnetization 

 Free energy of the ion-electron system (eV)
  ---------------------------------------------------
  alpha Z        PSCENC =         0.12758503
  Ewald energy   TEWEN  =       204.45162682
  -Hartree energ DENC   =      -680.14207647
  -exchange      EXHF   =         0.00000000
  -V(xc)+E(xc)   XCENC  =        38.42444518
  PAW double counting   =       455.07152327     -457.43959975
  entropy T*S    EENTRO =         0.00580543
  eigenvalues    EBANDS =      -153.80117859
  atomic energy  EATOM  =       579.39041991
  Solvation  Ediel_sol  =         0.00000000
  ---------------------------------------------------
  free energy    TOTEN  =       -13.91144917 eV

  energy without entropy =      -13.91725460  energy(sigma->0) =      -13.91338432


--------------------------------------------------------------------------------------------------------




--------------------------------------- Iteration      1(   4)  ---------------------------------------


     EDDAV:  cpu time    0.3034: real time    0.3046
       DOS:  cpu time    0.0002: real time    0.0002
    --------------------------------------------
      LOOP:  cpu time    0.3035: real time    0.3047

 eigenvalue-minimisations  :   392
 total energy-change (2. order) :-0.1062081E+00  (-0.1061584E+00)
 number of electron      10.0000000 magnetization 
 augmentation part       10.0000000 magnetization 

 Free energy of the ion-electron system (eV)
  ---------------------------------------------------
  alpha Z        PSCENC =         0.12758503
  Ewald energy   TEWEN  =       204.45162682
  -Hartree energ DENC   =      -680.14207647
  -exchange      EXHF   =         0.00000000
  -V(xc)+E(xc)   XCENC  =        38.42444518
  PAW double counting   =       455.07152327     -457.43959975
  entropy T*S    EENTRO =         0.00579791
  eigenvalues    EBANDS =      -153.90737920
  atomic energy  EATOM  =       579.39041991
  Solvation  Ediel_sol  =         0.00000000
  ---------------------------------------------------
  free energy    TOTEN  =       -14.01765731 eV

  energy without entropy =      -14.02345522  energy(sigma->0) =      -14.01958994


--------------------------------------------------------------------------------------------------------




--------------------------------------- Iteration      1(   5)  ---------------------------------------


     EDDAV:  cpu time    0.3797: real time    0.3810
       DOS:  cpu time    0.0002: real time    0.0002
    CHARGE:  cpu time    0.0113: real time    0.0113
    MIXING:  cpu time    0.0019: real time    0.0020
    --------------------------------------------
      LOOP:  cpu time    0.3931: real time    0.3944

 eigenvalue-minimisations  :   520
 total energy-change (2. order) :-0.6530345E-03  (-0.6530117E-03)
 number of electron       9.9999994 magnetization 
 augmentation part        0.6577618 magnetization 

 Broyden mixing:
  rms(total) = 0.59889E+00    rms(broyden)= 0.59784E+00
  rms(prec ) = 0.61861E+00
  weight for this iteration     100.00

 Free energy of the ion-electron system (eV)
  ---------------------------------------------------
  alpha Z        PSCENC =         0.12758503
  Ewald energy   TEWEN  =       204.45162682
  -Hartree energ DENC   =      -680.14207647
  -exchange      EXHF   =         0.00000000
  -V(xc)+E(xc)   XCENC  =        38.42444518
  PAW double counting   =       455.07152327     -457.43959975
  entropy T*S    EENTRO =         0.00579791
  eigenvalues    EBANDS =      -153.90803223
  atomic energy  EATOM  =       579.39041991
  Solvation  Ediel_sol  =         0.00000000
  ---------------------------------------------------
  free energy    TOTEN  =       -14.01831034 eV

  energy without entropy =      -14.02410825  energy(sigma->0) =      -14.02024298


--------------------------------------------------------------------------------------------------------




--------------------------------------- Iteration      1(   6)  ---------------------------------------


    POTLOK:  cpu time    0.0251: real time    0.0265
    SETDIJ:  cpu time    0.0032: real time    0.0033
    EDDIAG:  cpu time    0.0654: real time    0.0657
  RMM-DIIS:  cpu time    0.2134: real time    0.2139
    ORTHCH:  cpu time    0.0048: real time    0.0048
       DOS:  cpu time    0.0002: real time    0.0002
    CHARGE:  cpu time    0.0105: real time    0.0105
    MIXING:  cpu time    0.0016: real time    0.0016
    --------------------------------------------
      LOOP:  cpu time    0.3241: real time    0.3265

 eigenvalue-minimisations  :   320
 total energy-change (2. order) : 0.3280971E+00  (-0.2651724E+00)
 number of electron       9.9999998 magnetization 
 augmentation part        0.5145108 magnetization 

 Broyden mixing:
  rms(total) = 0.45668E+00    rms(broyden)= 0.45599E+00
  rms(prec ) = 0.47057E+00
  weight for this iteration     100.00

 eigenvalues of (default mixing * dielectric matrix)
  average eigenvalue GAMMA=   0.6075
  0.6075

 Free energy of the ion-electron system (eV)
  ---------------------------------------------------
  alpha Z        PSCENC =         0.12758503
  Ewald energy   TEWEN  =       204.45162682
  -Hartree energ DENC   =      -691.88812556
  -exchange      EXHF   =         0.00000000
  -V(xc)+E(xc)   XCENC  =        39.10276364
  PAW double counting   =       535.72331952     -538.18830240
  entropy T*S    EENTRO =         0.00579960
  eigenvalues    EBANDS =      -142.41529982
  atomic energy  EATOM  =       579.39041991
  Solvation  Ediel_sol  =         0.00000000
  ---------------------------------------------------
  free energy    TOTEN  =       -13.69021327 eV

  energy without entropy =      -13.69601287  energy(sigma->0) =      -13.69214647


--------------------------------------------------------------------------------------------------------




--------------------------------------- Iteration      1(   7)  ---------------------------------------


    POTLOK:  cpu time    0.0189: real time    0.0191
    SETDIJ:  cpu time    0.0010: real time    0.0010
    EDDIAG:  cpu time    0.0643: real time    0.0645
  RMM-DIIS:  cpu time    0.2079: real time    0.2084
    ORTHCH:  cpu time    0.0046: real time    0.0047
       DOS:  cpu time    0.0002: real time    0.0002
    CHARGE:  cpu time    0.0104: real time    0.0104
    MIXING:  cpu time    0.0012: real time    0.0013
    --------------------------------------------
      LOOP:  cpu time    0.3086: real time    0.3095

 eigenvalue-minimisations  :   320
 total energy-change (2. order) : 0.2651836E+00  (-0.3607962E-01)
 number of electron       9.9999996 magnetization 
 augmentation part        0.5763227 magnetization 

 Broyden mixing:
  rms(total) = 0.18592E+00    rms(broyden)= 0.18560E+00
  rms(prec ) = 0.18858E+00
  weight for this iteration     100.00

 eigenvalues of (default mixing * dielectric matrix)
  average eigenvalue GAMMA=   1.4562
  2.3453  0.5671

 Free energy of the ion-electron system (eV)
  ---------------------------------------------------
  alpha Z        PSCENC =         0.12758503
  Ewald energy   TEWEN  =       204.45162682
  -Hartree energ DENC   =      -688.81094745
  -exchange      EXHF   =         0.00000000
  -V(xc)+E(xc)   XCENC  =        38.94996642
  PAW double counting   =       553.97346282     -556.34767227
  entropy T*S    EENTRO =         0.00579791
  eigenvalues    EBANDS =      -145.16526884
  atomic energy  EATOM  =       579.39041991
  Solvation  Ediel_sol  =         0.00000000
  ---------------------------------------------------
  free energy    TOTEN  =       -13.42502966 eV

  energy without entropy =      -13.43082757  energy(sigma->0) =      -13.42696230


--------------------------------------------------------------------------------------------------------




--------------------------------------- Iteration      1(   8)  ---------------------------------------


    POTLOK:  cpu time    0.0185: real time    0.0187
    SETDIJ:  cpu time    0.0012: real time    0.0012
    EDDIAG:  cpu time    0.0645: real time    0.0646
  RMM-DIIS:  cpu time    0.2111: real time    0.2115
    ORTHCH:  cpu time    0.0046: real time    0.0046
       DOS:  cpu time    0.0002: real time    0.0002
    CHARGE:  cpu time    0.0103: real time    0.0103
    MIXING:  cpu time    0.0012: real time    0.0012
    --------------------------------------------
      LOOP:  cpu time    0.3115: real time    0.3124

 eigenvalue-minimisations  :   320
 total energy-change (2. order) : 0.2817149E-01  (-0.8087536E-02)
 number of electron       9.9999996 magnetization 
 augmentation part        0.5707623 magnetization 

 Broyden mixing:
  rms(total) = 0.17386E-01    rms(broyden)= 0.17359E-01
  rms(prec ) = 0.18376E-01
  weight for this iteration     100.00

 eigenvalues of (default mixing * dielectric matrix)
  average eigenvalue GAMMA=   1.3236
  0.5669  1.0652  2.3387

 Free energy of the ion-electron system (eV)
  ---------------------------------------------------
  alpha Z        PSCENC =         0.12758503
  Ewald energy   TEWEN  =       204.45162682
  -Hartree energ DENC   =      -692.12022261
  -exchange      EXHF   =         0.00000000
  -V(xc)+E(xc)   XCENC  =        39.15308322
  PAW double counting   =       632.34374869     -634.63445628
  entropy T*S    EENTRO =         0.00579791
  eigenvalues    EBANDS =      -142.11444085
  atomic energy  EATOM  =       579.39041991
  Solvation  Ediel_sol  =         0.00000000
  ---------------------------------------------------
  free energy    TOTEN  =       -13.39685817 eV

  energy without entropy =      -13.40265608  energy(sigma->0) =      -13.39879080


--------------------------------------------------------------------------------------------------------




--------------------------------------- Iteration      1(   9)  ---------------------------------------


    POTLOK:  cpu time    0.0181: real time    0.0183
    SETDIJ:  cpu time    0.0010: real time    0.0010
    EDDIAG:  cpu time    0.0690: real time    0.0692
  RMM-DIIS:  cpu time    0.2273: real time    0.2279
    ORTHCH:  cpu time    0.0046: real time    0.0046
       DOS:  cpu time    0.0002: real time    0.0002
    CHARGE:  cpu time    0.0102: real time    0.0103
    MIXING:  cpu time    0.0012: real time    0.0012
    --------------------------------------------
      LOOP:  cpu time    0.3316: real time    0.3326

 eigenvalue-minimisations  :   330
 total energy-change (2. order) :-0.6102379E-03  (-0.3261325E-03)
 number of electron       9.9999996 magnetization 
 augmentation part        0.5683630 magnetization 

 Broyden mixing:
  rms(total) = 0.12145E-01    rms(broyden)= 0.12135E-01
  rms(prec ) = 0.12752E-01
  weight for this iteration     100.00

 eigenvalues of (default mixing * dielectric matrix)
  average eigenvalue GAMMA=   1.6456
  0.5691  1.0035  2.5050  2.5050

 Free energy of the ion-electron system (eV)
  ---------------------------------------------------
  alpha Z        PSCENC =         0.12758503
  Ewald energy   TEWEN  =       204.45162682
  -Hartree energ DENC   =      -692.24197426
  -exchange      EXHF   =         0.00000000
  -V(xc)+E(xc)   XCENC  =        39.15219986
  PAW double counting   =       633.59800878     -635.88170376
  entropy T*S    EENTRO =         0.00579791
  eigenvalues    EBANDS =      -141.99942869
  atomic energy  EATOM  =       579.39041991
  Solvation  Ediel_sol  =         0.00000000
  ---------------------------------------------------
  free energy    TOTEN  =       -13.39746841 eV

  energy without entropy =      -13.40326631  energy(sigma->0) =      -13.39940104


--------------------------------------------------------------------------------------------------------




--------------------------------------- Iteration      1(  10)  ---------------------------------------


    POTLOK:  cpu time    0.0180: real time    0.0182
    SETDIJ:  cpu time    0.0010: real time    0.0010
    EDDIAG:  cpu time    0.0647: real time    0.0648
  RMM-DIIS:  cpu time    0.2141: real time    0.2146
    ORTHCH:  cpu time    0.0046: real time    0.0046
       DOS:  cpu time    0.0002: real time    0.0002
    CHARGE:  cpu time    0.0112: real time    0.0112
    MIXING:  cpu time    0.0013: real time    0.0013
    --------------------------------------------
      LOOP:  cpu time    0.3151: real time    0.3160

 eigenvalue-minimisations  :   320
 total energy-change (2. order) :-0.1466151E-02  (-0.1279435E-03)
 number of electron       9.9999996 magnetization 
 augmentation part        0.5686827 magnetization 

 Broyden mixing:
  rms(total) = 0.54934E-02    rms(broyden)= 0.54892E-02
  rms(prec ) = 0.59326E-02
  weight for this iteration     100.00

 eigenvalues of (default mixing * dielectric matrix)
  average eigenvalue GAMMA=   1.4309
  2.4157  0.5688  1.8329  0.9338  1.4031

 Free energy of the ion-electron system (eV)
  ---------------------------------------------------
  alpha Z        PSCENC =         0.12758503
  Ewald energy   TEWEN  =       204.45162682
  -Hartree energ DENC   =      -692.22229896
  -exchange      EXHF   =         0.00000000
  -V(xc)+E(xc)   XCENC  =        39.13576302
  PAW double counting   =       632.52911161     -634.79919465
  entropy T*S    EENTRO =         0.00579791
  eigenvalues    EBANDS =      -142.01774524
  atomic energy  EATOM  =       579.39041991
  Solvation  Ediel_sol  =         0.00000000
  ---------------------------------------------------
  free energy    TOTEN  =       -13.39893456 eV

  energy without entropy =      -13.40473246  energy(sigma->0) =      -13.40086719


--------------------------------------------------------------------------------------------------------




--------------------------------------- Iteration      1(  11)  ---------------------------------------


    POTLOK:  cpu time    0.0202: real time    0.0226
    SETDIJ:  cpu time    0.0013: real time    0.0013
    EDDIAG:  cpu time    0.0641: real time    0.0643
  RMM-DIIS:  cpu time    0.2099: real time    0.2104
    ORTHCH:  cpu time    0.0046: real time    0.0046
       DOS:  cpu time    0.0002: real time    0.0002
    CHARGE:  cpu time    0.0103: real time    0.0103
    MIXING:  cpu time    0.0013: real time    0.0013
    --------------------------------------------
      LOOP:  cpu time    0.3119: real time    0.3149

 eigenvalue-minimisations  :   320
 total energy-change (2. order) :-0.2323131E-03  (-0.2013852E-04)
 number of electron       9.9999996 magnetization 
 augmentation part        0.5689490 magnetization 

 Broyden mixing:
  rms(total) = 0.21546E-02    rms(broyden)= 0.21534E-02
  rms(prec ) = 0.28143E-02
  weight for this iteration     100.00

 eigenvalues of (default mixing * dielectric matrix)
  average eigenvalue GAMMA=   1.6827
  3.2100  2.5078  0.5687  1.7451  1.0323  1.0323

 Free energy of the ion-electron system (eV)
  ---------------------------------------------------
  alpha Z        PSCENC =         0.12758503
  Ewald energy   TEWEN  =       204.45162682
  -Hartree energ DENC   =      -692.34867885
  -exchange      EXHF   =         0.00000000
  -V(xc)+E(xc)   XCENC  =        39.14474320
  PAW double counting   =       633.87893502     -636.14980936
  entropy T*S    EENTRO =         0.00579791
  eigenvalues    EBANDS =      -141.89978655
  atomic energy  EATOM  =       579.39041991
  Solvation  Ediel_sol  =         0.00000000
  ---------------------------------------------------
  free energy    TOTEN  =       -13.39916687 eV

  energy without entropy =      -13.40496478  energy(sigma->0) =      -13.40109951


--------------------------------------------------------------------------------------------------------




--------------------------------------- Iteration      1(  12)  ---------------------------------------


    POTLOK:  cpu time    0.0179: real time    0.0181
    SETDIJ:  cpu time    0.0012: real time    0.0012
    EDDIAG:  cpu time    0.0644: real time    0.0645
  RMM-DIIS:  cpu time    0.2065: real time    0.2070
    ORTHCH:  cpu time    0.0046: real time    0.0046
       DOS:  cpu time    0.0002: real time    0.0002
    CHARGE:  cpu time    0.0101: real time    0.0101
    MIXING:  cpu time    0.0013: real time    0.0013
    --------------------------------------------
      LOOP:  cpu time    0.3062: real time    0.3071

 eigenvalue-minimisations  :   310
 total energy-change (2. order) :-0.1380896E-02  (-0.2442973E-04)
 number of electron       9.9999996 magnetization 
 augmentation part        0.5687005 magnetization 

 Broyden mixing:
  rms(total) = 0.12823E-02    rms(broyden)= 0.12809E-02
  rms(prec ) = 0.15689E-02
  weight for this iteration     100.00

 eigenvalues of (default mixing * dielectric matrix)
  average eigenvalue GAMMA=   1.6574
  3.2664  2.4186  1.7074  1.7074  0.5687  0.9667  0.9667

 Free energy of the ion-electron system (eV)
  ---------------------------------------------------
  alpha Z        PSCENC =         0.12758503
  Ewald energy   TEWEN  =       204.45162682
  -Hartree energ DENC   =      -692.53752081
  -exchange      EXHF   =         0.00000000
  -V(xc)+E(xc)   XCENC  =        39.14905699
  PAW double counting   =       632.87444902     -635.14435903
  entropy T*S    EENTRO =         0.00579791
  eigenvalues    EBANDS =      -141.71760359
  atomic energy  EATOM  =       579.39041991
  Solvation  Ediel_sol  =         0.00000000
  ---------------------------------------------------
  free energy    TOTEN  =       -13.40054777 eV

  energy without entropy =      -13.40634567  energy(sigma->0) =      -13.40248040


--------------------------------------------------------------------------------------------------------




--------------------------------------- Iteration      1(  13)  ---------------------------------------


    POTLOK:  cpu time    0.0184: real time    0.0186
    SETDIJ:  cpu time    0.0012: real time    0.0012
    EDDIAG:  cpu time    0.0639: real time    0.0640
  RMM-DIIS:  cpu time    0.2054: real time    0.2059
    ORTHCH:  cpu time    0.0045: real time    0.0046
       DOS:  cpu time    0.0002: real time    0.0002
    CHARGE:  cpu time    0.0102: real time    0.0102
    MIXING:  cpu time    0.0013: real time    0.0013
    --------------------------------------------
      LOOP:  cpu time    0.3051: real time    0.3060

 eigenvalue-minimisations  :   310
 total energy-change (2. order) :-0.5149233E-03  (-0.4611464E-05)
 number of electron       9.9999996 magnetization 
 augmentation part        0.5686835 magnetization 

 Broyden mixing:
  rms(total) = 0.58862E-03    rms(broyden)= 0.58837E-03
  rms(prec ) = 0.86639E-03
  weight for this iteration     100.00

 eigenvalues of (default mixing * dielectric matrix)
  average eigenvalue GAMMA=   1.9863
  5.3538  2.6748  2.4653  1.6598  0.5687  1.2163  0.9758  0.9758

 Free energy of the ion-electron system (eV)
  ---------------------------------------------------
  alpha Z        PSCENC =         0.12758503
  Ewald energy   TEWEN  =       204.45162682
  -Hartree energ DENC   =      -692.55967079
  -exchange      EXHF   =         0.00000000
  -V(xc)+E(xc)   XCENC  =        39.14888088
  PAW double counting   =       633.24124059     -635.51092190
  entropy T*S    EENTRO =         0.00579791
  eigenvalues    EBANDS =      -141.69602112
  atomic energy  EATOM  =       579.39041991
  Solvation  Ediel_sol  =         0.00000000
  ---------------------------------------------------
  free energy    TOTEN  =       -13.40106269 eV

  energy without entropy =      -13.40686060  energy(sigma->0) =      -13.40299533


--------------------------------------------------------------------------------------------------------




--------------------------------------- Iteration      1(  14)  ---------------------------------------


    POTLOK:  cpu time    0.0178: real time    0.0180
    SETDIJ:  cpu time    0.0012: real time    0.0012
    EDDIAG:  cpu time    0.0639: real time    0.0640
  RMM-DIIS:  cpu time    0.2045: real time    0.2050
    ORTHCH:  cpu time    0.0046: real time    0.0046
       DOS:  cpu time    0.0002: real time    0.0002
    CHARGE:  cpu time    0.0102: real time    0.0102
    MIXING:  cpu time    0.0013: real time    0.0013
    --------------------------------------------
      LOOP:  cpu time    0.3036: real time    0.3045

 eigenvalue-minimisations  :   310
 total energy-change (2. order) :-0.5759685E-03  (-0.1014121E-04)
 number of electron       9.9999996 magnetization 
 augmentation part        0.5687283 magnetization 

 Broyden mixing:
  rms(total) = 0.58170E-03    rms(broyden)= 0.58153E-03
  rms(prec ) = 0.64805E-03
  weight for this iteration     100.00

 eigenvalues of (default mixing * dielectric matrix)
  average eigenvalue GAMMA=   2.1530
  5.8028  2.8595  2.7753  2.1869  2.1869  0.5687  0.9929  1.0021  1.0021

 Free energy of the ion-electron system (eV)
  ---------------------------------------------------
  alpha Z        PSCENC =         0.12758503
  Ewald energy   TEWEN  =       204.45162682
  -Hartree energ DENC   =      -692.61504183
  -exchange      EXHF   =         0.00000000
  -V(xc)+E(xc)   XCENC  =        39.14975575
  PAW double counting   =       633.20370717     -635.47376752
  entropy T*S    EENTRO =         0.00579791
  eigenvalues    EBANDS =      -141.64172189
  atomic energy  EATOM  =       579.39041991
  Solvation  Ediel_sol  =         0.00000000
  ---------------------------------------------------
  free energy    TOTEN  =       -13.40163866 eV

  energy without entropy =      -13.40743657  energy(sigma->0) =      -13.40357129


--------------------------------------------------------------------------------------------------------




--------------------------------------- Iteration      1(  15)  ---------------------------------------


    POTLOK:  cpu time    0.0174: real time    0.0176
    SETDIJ:  cpu time    0.0012: real time    0.0012
    EDDIAG:  cpu time    0.0639: real time    0.0640
  RMM-DIIS:  cpu time    0.2040: real time    0.2045
    ORTHCH:  cpu time    0.0046: real time    0.0046
       DOS:  cpu time    0.0002: real time    0.0002
    CHARGE:  cpu time    0.0103: real time    0.0103
    MIXING:  cpu time    0.0016: real time    0.0016
    --------------------------------------------
      LOOP:  cpu time    0.3032: real time    0.3041

 eigenvalue-minimisations  :   285
 total energy-change (2. order) :-0.2277123E-03  (-0.1522690E-05)
 number of electron       9.9999996 magnetization 
 augmentation part        0.5686348 magnetization 

 Broyden mixing:
  rms(total) = 0.31840E-03    rms(broyden)= 0.31785E-03
  rms(prec ) = 0.34413E-03
  weight for this iteration     100.00

 eigenvalues of (default mixing * dielectric matrix)
  average eigenvalue GAMMA=   2.1429
  6.8196  3.5320  2.4497  2.4497  1.7727  0.5687  1.0873  0.9997  0.9997  0.7505

 Free energy of the ion-electron system (eV)
  ---------------------------------------------------
  alpha Z        PSCENC =         0.12758503
  Ewald energy   TEWEN  =       204.45162682
  -Hartree energ DENC   =      -692.61759531
  -exchange      EXHF   =         0.00000000
  -V(xc)+E(xc)   XCENC  =        39.14928104
  PAW double counting   =       633.11259274     -635.38249058
  entropy T*S    EENTRO =         0.00579791
  eigenvalues    EBANDS =      -141.63908392
  atomic energy  EATOM  =       579.39041991
  Solvation  Ediel_sol  =         0.00000000
  ---------------------------------------------------
  free energy    TOTEN  =       -13.40186637 eV

  energy without entropy =      -13.40766428  energy(sigma->0) =      -13.40379901


--------------------------------------------------------------------------------------------------------




--------------------------------------- Iteration      1(  16)  ---------------------------------------


    POTLOK:  cpu time    0.0174: real time    0.0176
    SETDIJ:  cpu time    0.0010: real time    0.0010
    EDDIAG:  cpu time    0.0642: real time    0.0644
  RMM-DIIS:  cpu time    0.1985: real time    0.1990
    ORTHCH:  cpu time    0.0046: real time    0.0046
       DOS:  cpu time    0.0002: real time    0.0002
    CHARGE:  cpu time    0.0102: real time    0.0103
    MIXING:  cpu time    0.0015: real time    0.0015
    --------------------------------------------
      LOOP:  cpu time    0.2977: real time    0.2985

 eigenvalue-minimisations  :   270
 total energy-change (2. order) :-0.3554272E-04  (-0.3341918E-06)
 number of electron       9.9999996 magnetization 
 augmentation part        0.5686447 magnetization 

 Broyden mixing:
  rms(total) = 0.21112E-03    rms(broyden)= 0.21110E-03
  rms(prec ) = 0.23206E-03
  weight for this iteration     100.00

 eigenvalues of (default mixing * dielectric matrix)
  average eigenvalue GAMMA=   2.2663
  7.4606  4.0720  2.5496  2.2786  1.9867  1.9867  0.5687  0.9844  0.9844  1.0288
  1.0288

 Free energy of the ion-electron system (eV)
  ---------------------------------------------------
  alpha Z        PSCENC =         0.12758503
  Ewald energy   TEWEN  =       204.45162682
  -Hartree energ DENC   =      -692.60647362
  -exchange      EXHF   =         0.00000000
  -V(xc)+E(xc)   XCENC  =        39.14848416
  PAW double counting   =       633.12640705     -635.39610544
  entropy T*S    EENTRO =         0.00579791
  eigenvalues    EBANDS =      -141.64964373
  atomic energy  EATOM  =       579.39041991
  Solvation  Ediel_sol  =         0.00000000
  ---------------------------------------------------
  free energy    TOTEN  =       -13.40190191 eV

  energy without entropy =      -13.40769982  energy(sigma->0) =      -13.40383455


--------------------------------------------------------------------------------------------------------




--------------------------------------- Iteration      1(  17)  ---------------------------------------


    POTLOK:  cpu time    0.0175: real time    0.0177
    SETDIJ:  cpu time    0.0012: real time    0.0012
    EDDIAG:  cpu time    0.0638: real time    0.0640
  RMM-DIIS:  cpu time    0.1960: real time    0.1965
    ORTHCH:  cpu time    0.0046: real time    0.0046
       DOS:  cpu time    0.0002: real time    0.0002
    CHARGE:  cpu time    0.0100: real time    0.0100
    MIXING:  cpu time    0.0014: real time    0.0014
    --------------------------------------------
      LOOP:  cpu time    0.2947: real time    0.2956

 eigenvalue-minimisations  :   270
 total energy-change (2. order) :-0.3978406E-04  (-0.2029670E-06)
 number of electron       9.9999996 magnetization 
 augmentation part        0.5686752 magnetization 

 Broyden mixing:
  rms(total) = 0.77166E-04    rms(broyden)= 0.76732E-04
  rms(prec ) = 0.89352E-04
  weight for this iteration     100.00

 eigenvalues of (default mixing * dielectric matrix)
  average eigenvalue GAMMA=   2.2115
  7.6886  4.3468  2.7522  2.4087  2.0504  0.5687  1.4405  1.4405  0.9982  0.9982
  0.9743  0.8709

 Free energy of the ion-electron system (eV)
  ---------------------------------------------------
  alpha Z        PSCENC =         0.12758503
  Ewald energy   TEWEN  =       204.45162682
  -Hartree energ DENC   =      -692.59889324
  -exchange      EXHF   =         0.00000000
  -V(xc)+E(xc)   XCENC  =        39.14825007
  PAW double counting   =       633.13526345     -635.40493524
  entropy T*S    EENTRO =         0.00579791
  eigenvalues    EBANDS =      -141.65705641
  atomic energy  EATOM  =       579.39041991
  Solvation  Ediel_sol  =         0.00000000
  ---------------------------------------------------
  free energy    TOTEN  =       -13.40194170 eV

  energy without entropy =      -13.40773960  energy(sigma->0) =      -13.40387433


--------------------------------------------------------------------------------------------------------




--------------------------------------- Iteration      1(  18)  ---------------------------------------


    POTLOK:  cpu time    0.0175: real time    0.0177
    SETDIJ:  cpu time    0.0012: real time    0.0012
    EDDIAG:  cpu time    0.0639: real time    0.0640
  RMM-DIIS:  cpu time    0.1761: real time    0.1765
    ORTHCH:  cpu time    0.0046: real time    0.0046
       DOS:  cpu time    0.0002: real time    0.0002
    --------------------------------------------
      LOOP:  cpu time    0.2634: real time    0.2642

 eigenvalue-minimisations  :   231
 total energy-change (2. order) :-0.5952628E-05  (-0.3521466E-07)
 number of electron       9.9999996 magnetization 
 augmentation part        0.5686752 magnetization 

 Free energy of the ion-electron system (eV)
  ---------------------------------------------------
  alpha Z        PSCENC =         0.12758503
  Ewald energy   TEWEN  =       204.45162682
  -Hartree energ DENC   =      -692.60020684
  -exchange      EXHF   =         0.00000000
  -V(xc)+E(xc)   XCENC  =        39.14834948
  PAW double counting   =       633.12120001     -635.39089991
  entropy T*S    EENTRO =         0.00579791
  eigenvalues    EBANDS =      -141.65582006
  atomic energy  EATOM  =       579.39041991
  Solvation  Ediel_sol  =         0.00000000
  ---------------------------------------------------
  free energy    TOTEN  =       -13.40194765 eV

  energy without entropy =      -13.40774556  energy(sigma->0) =      -13.40388029


--------------------------------------------------------------------------------------------------------




 average (electrostatic) potential at core
  the test charge radii are     0.7215  0.6991
  (the norm of the test charge is              1.0000)
       1 -82.8953       2 -62.5870
 
 
 
 E-fermi :  -9.2755     XC(G=0):  -0.2388     alpha+bet : -0.0511


 k-point     1 :       0.0000    0.0000    0.0000
  band No.  band energies     occupation 
      1     -26.6556      2.00000
      2     -14.2388      2.00000
      3     -10.2875      2.00000
      4     -10.2868      2.00000
      5      -9.3598      2.00020
      6      -3.7202      0.00000
      7      -3.7197      0.00000
      8      -0.2526      0.00000
      9       0.0512      0.00000
     10       0.0828      0.00000
     11       0.4231      0.00000
     12       0.5400      0.00000
     13       1.0470      0.00000
     14       1.1339      0.00000
     15       1.1850      0.00000
     16       1.2632      0.00000

 k-point     2 :       0.2500   -0.0000    0.0000
  band No.  band energies     occupation 
      1     -26.6555      2.00000
      2     -14.2387      2.00000
      3     -10.2872      2.00000
      4     -10.2866      2.00000
      5      -9.3597      1.99996
      6      -3.7201      0.00000
      7      -3.7193      0.00000
      8      -0.1598      0.00000
      9       0.1473      0.00000
     10       0.1801      0.00000
     11       0.5008      0.00000
     12       0.6225      0.00000
     13       0.6658      0.00000
     14       0.9382      0.00000
     15       0.9649      0.00000
     16       0.9866      0.00000

 k-point     3 :       0.5000   -0.0000    0.0000
  band No.  band energies     occupation 
      1     -26.6555      2.00000
      2     -14.2387      2.00000
      3     -10.2872      2.00000
      4     -10.2867      2.00000
      5      -9.3597      1.99985
      6      -3.7202      0.00000
      7      -3.7194      0.00000
      8       0.0406      0.00000
      9       0.2337      0.00000
     10       0.4000      0.00000
     11       0.4607      0.00000
     12       0.4733      0.00000
     13       0.5222      0.00000
     14       0.7560      0.00000
     15       0.8882      0.00000
     16       0.9099      0.00000

 k-point     4 :       0.0000    0.2500    0.0000
  band No.  band energies     occupation 
      1     -26.6555      2.00000
      2     -14.2387      2.00000
      3     -10.2873      2.00000
      4     -10.2866      2.00000
      5      -9.3597      2.00007
      6      -3.7199      0.00000
      7      -3.7192      0.00000
      8      -0.1586      0.00000
      9       0.1476      0.00000
     10       0.1802      0.00000
     11       0.5053      0.00000
     12       0.6225      0.00000
     13       0.6710      0.00000
     14       0.9174      0.00000
     15       0.9590      0.00000
     16       0.9927      0.00000

 k-point     5 :       0.2500    0.2500    0.0000
  band No.  band energies     occupation 
      1     -26.6555      2.00000
      2     -14.2387      2.00000
      3     -10.2872      2.00000
      4     -10.2866      2.00000
      5      -9.3597      1.99995
      6      -3.7199      0.00000
      7      -3.7194      0.00000
      8      -0.1595      0.00000
      9       0.1474      0.00000
     10       0.1802      0.00000
     11       0.5009      0.00000
     12       0.6228      0.00000
     13       0.6626      0.00000
     14       0.9387      0.00000
     15       0.9631      0.00000
     16       0.9856      0.00000

 k-point     6 :       0.5000    0.2500    0.0000
  band No.  band energies     occupation 
      1     -26.6555      2.00000
      2     -14.2388      2.00000
      3     -10.2874      2.00000
      4     -10.2867      2.00000
      5      -9.3597      2.00013
      6      -3.7202      0.00000
      7      -3.7195      0.00000
      8       0.0110      0.00000
      9       0.3138      0.00000
     10       0.3702      0.00000
     11       0.4292      0.00000
     12       0.5358      0.00000
     13       0.6503      0.00000
     14       0.7564      0.00000
     15       0.7692      0.00000
     16       0.8143      0.00000

 k-point     7 :      -0.2500    0.2500    0.0000
  band No.  band energies     occupation 
      1     -26.6555      2.00000
      2     -14.2387      2.00000
      3     -10.2874      2.00000
      4     -10.2868      2.00000
      5      -9.3597      1.99999
      6      -3.7200      0.00000
      7      -3.7195      0.00000
      8       0.0124      0.00000
      9       0.3172      0.00000
     10       0.3713      0.00000
     11       0.4395      0.00000
     12       0.5173      0.00000
     13       0.6521      0.00000
     14       0.7575      0.00000
     15       0.7680      0.00000
     16       0.8126      0.00000

 k-point     8 :       0.0000    0.5000    0.0000
  band No.  band energies     occupation 
      1     -26.6555      2.00000
      2     -14.2387      2.00000
      3     -10.2873      2.00000
      4     -10.2867      2.00000
      5      -9.3597      1.99993
      6      -3.7200      0.00000
      7      -3.7194      0.00000
      8       0.0428      0.00000
      9       0.2495      0.00000
     10       0.3923      0.00000
     11       0.4620      0.00000
     12       0.4713      0.00000
     13       0.5208      0.00000
     14       0.7409      0.00000
     15       0.8904      0.00000
     16       0.9120      0.00000

 k-point     9 :       0.2500    0.5000    0.0000
  band No.  band energies     occupation 
      1     -26.6555      2.00000
      2     -14.2387      2.00000
      3     -10.2874      2.00000
      4     -10.2867      2.00000
      5      -9.3597      1.99999
      6      -3.7200      0.00000
      7      -3.7194      0.00000
      8       0.0136      0.00000
      9       0.3165      0.00000
     10       0.3712      0.00000
     11       0.4337      0.00000
     12       0.5223      0.00000
     13       0.6522      0.00000
     14       0.7563      0.00000
     15       0.7686      0.00000
     16       0.8122      0.00000

 k-point    10 :       0.5000    0.5000    0.0000
  band No.  band energies     occupation 
      1     -26.6555      2.00000
      2     -14.2387      2.00000
      3     -10.2873      2.00000
      4     -10.2866      2.00000
      5      -9.3597      1.99983
      6      -3.7201      0.00000
      7      -3.7195      0.00000
      8       0.0442      0.00000
      9       0.2288      0.00000
     10       0.4006      0.00000
     11       0.4609      0.00000
     12       0.4724      0.00000
     13       0.5212      0.00000
     14       0.7571      0.00000
     15       0.8846      0.00000
     16       0.9098      0.00000


--------------------------------------------------------------------------------------------------------


 soft charge-density along one line, spin component           1
         0         1         2         3         4         5         6         7         8         9
 total charge-density along one line
 
 pseudopotential strength for first ion, spin component:           1
 14.146 -17.369   0.001   0.084   0.034  -0.001  -0.106  -0.043
-17.369  21.360  -0.001  -0.107  -0.043   0.001   0.135   0.055
  0.001  -0.001 -10.971  -0.000  -0.000  13.682   0.000   0.000
  0.084  -0.107  -0.000 -11.028  -0.023   0.000  13.756   0.030
  0.034  -0.043  -0.000  -0.023 -10.981   0.000   0.030  13.694
 -0.001   0.001  13.682   0.000   0.000 -17.008  -0.001  -0.000
 -0.106   0.135   0.000  13.756   0.030  -0.001 -17.106  -0.040
 -0.043   0.055   0.000   0.030  13.694  -0.000  -0.040 -17.024
 total augmentation occupancy for first ion, spin component:           1
  2.618   0.354  -0.002  -0.361  -0.146  -0.001  -0.162  -0.066
  0.354   0.126  -0.002  -0.363  -0.147  -0.001  -0.092  -0.037
 -0.002  -0.002   1.801   0.004   0.001   0.161   0.001   0.000
 -0.361  -0.363   0.004   2.322   0.211   0.001   0.369   0.084
 -0.146  -0.147   0.001   0.211   1.886   0.000   0.084   0.195
 -0.001  -0.001   0.161   0.001   0.000   0.014   0.000   0.000
 -0.162  -0.092   0.001   0.369   0.084   0.000   0.077   0.025
 -0.066  -0.037   0.000   0.084   0.195   0.000   0.025   0.025


------------------------ aborting loop because EDIFF is reached ----------------------------------------


    CHARGE:  cpu time    0.0101: real time    0.0101
    FORLOC:  cpu time    0.0011: real time    0.0011
    FORNL :  cpu time    0.0724: real time    0.0728
    STRESS:  cpu time    0.0273: real time    0.0275
    FORCOR:  cpu time    0.0210: real time    0.0210
    FORHAR:  cpu time    0.0051: real time    0.0052
    MIXING:  cpu time    0.0014: real time    0.0014
    OFIELD:  cpu time    0.0001: real time    0.0002
 only isotrope contributions calculated
  for stress because ISIF=1 (only pressure is correct)

  FORCE on cell =-STRESS in cart. coord.  units (eV):
  Direction    XX          YY          ZZ          XY          YZ          ZX
  --------------------------------------------------------------------------------------
  Alpha Z     0.12759     0.12759     0.12759
  Ewald     116.63190    80.44589     7.37382     0.62525     1.53609    88.91571
  Hartree   306.94141   291.56754    94.08851     0.26456     0.64702    37.42336
  E(xc)     -42.52651   -42.67258   -41.77968     0.00266     0.00624     0.36100
  Local    -554.38011  -504.08036  -225.84573    -0.86590    -2.13004  -123.22943
  n-local   -18.91305   -18.91305   -18.91305     0.00000     0.00000     0.00000
  augment     5.99234     5.99234     5.99234     0.00000     0.00000     0.00000
  Kinetic   181.65620   184.01881   169.55767    -0.03767    -0.10025    -5.85249
  Fock        0.00000     0.00000     0.00000     0.00000     0.00000     0.00000
  -------------------------------------------------------------------------------------
  Total      -4.47025    -3.51383    -9.39854    -0.01109    -0.04094    -2.38185
  in kB      -2.09124    -1.64381    -4.39674    -0.00519    -0.01915    -1.11426
  external pressure =       -2.71 kB  Pullay stress =        0.00 kB


 VOLUME and BASIS-vectors are now :
 -----------------------------------------------------------------------------
  energy-cutoff  :      400.00
  volume of cell :     3424.83
      direct lattice vectors                 reciprocal lattice vectors
    11.214359184  0.000000000  0.000000000     0.089171390 -0.051483119  0.000000000
     5.607178664  9.711919634  0.000000000     0.000000000  0.102966256  0.000000000
     0.000000000  0.000000000 31.445607950     0.000000000  0.000000000  0.031800943

  length of vectors
    11.214359184 11.214358455 31.445607950     0.102966249  0.102966256  0.031800943


 FORCES acting on ions
    electron-ion (+dipol)            ewald-force                    non-local-force                 convergence-correction
 -----------------------------------------------------------------------------------------------
   -.584E+02 -.101E+01 -.148E+03   0.717E+02 0.124E+01 0.181E+03   -.175E+02 -.307E+00 -.433E+02   0.424E-03 0.847E-05 -.224E-03
   0.660E+02 0.114E+01 0.167E+03   -.717E+02 -.124E+01 -.181E+03   0.994E+01 0.178E+00 0.246E+02   0.229E-04 0.241E-05 -.575E-03
 -----------------------------------------------------------------------------------------------
   0.757E+01 0.131E+00 0.187E+02   0.000E+00 0.000E+00 0.000E+00   -.757E+01 -.129E+00 -.187E+02   0.447E-03 0.109E-04 -.799E-03
 
 
 POSITION                                       TOTAL-FORCE (eV/Angst)
 -----------------------------------------------------------------------------------
      6.50173      6.00867      6.66566        -4.254110     -0.077908    -10.522175
      6.00000      6.00000      5.42483         4.254110      0.077908     10.522175
 -----------------------------------------------------------------------------------
    total drift:                                0.001956      0.002279      0.004665


--------------------------------------------------------------------------------------------------------



  FREE ENERGIE OF THE ION-ELECTRON SYSTEM (eV)
  ---------------------------------------------------
  free  energy   TOTEN  =       -13.40194765 eV

  energy  without entropy=      -13.40774556  energy(sigma->0) =      -13.40388029
 


--------------------------------------------------------------------------------------------------------


    POTLOK:  cpu time    0.0190: real time    0.0191


--------------------------------------------------------------------------------------------------------


 stress matrix after NEB project (eV)
     -4.47025     -0.01109     -2.38185
     -0.01109     -3.51383     -0.04094
     -2.38185     -0.04094     -9.39854
  FORCES: max atom, RMS    11.349877   11.349877
  FORCE total and by dimension   16.051149   10.522175
  Stress total and by dimension   11.489675    9.398536


--------------------------------------------------------------------------------------------------------


    WAVPRE:  cpu time    0.0051: real time    0.0059
    FEWALD:  cpu time    0.0002: real time    0.0002

 real space projection operators:
  total allocation   :        114.94 KBytes
  max/ min on nodes  :         16.69         12.69

    ORTHCH:  cpu time    0.0286: real time    0.0287
     LOOP+:  cpu time    6.0954: real time    6.1246


--------------------------------------- Iteration      2(   1)  ---------------------------------------


    POTLOK:  cpu time    0.0175: real time    0.0253
    SETDIJ:  cpu time    0.0012: real time    0.0012
     EDDAV:  cpu time    0.3399: real time    0.3409
       DOS:  cpu time    0.0002: real time    0.0002
    CHARGE:  cpu time    0.0219: real time    0.0220
    MIXING:  cpu time    0.0009: real time    0.0009
    --------------------------------------------
      LOOP:  cpu time    0.3818: real time    0.3905

 eigenvalue-minimisations  :   456
 total energy-change (2. order) : 0.7961779E+03  (-0.2764843E+03)
 number of electron      10.0000002 magnetization 
 augmentation part        1.5496605 magnetization 

 Broyden mixing:
  rms(total) = 0.27048E+02    rms(broyden)= 0.27047E+02
  rms(prec ) = 0.27049E+02
  weight for this iteration     100.00

 Free energy of the ion-electron system (eV)
  ---------------------------------------------------
  alpha Z        PSCENC =         0.12758503
  Ewald energy   TEWEN  =      1367.24887063
  -Hartree energ DENC   =      -851.37926378
  -exchange      EXHF   =         0.00000000
  -V(xc)+E(xc)   XCENC  =        44.42164266
  PAW double counting   =       633.12086019     -635.39056918
  entropy T*S    EENTRO =         0.00616056
  eigenvalues    EBANDS =      -354.76976727
  atomic energy  EATOM  =       579.39041991
  Solvation  Ediel_sol  =         0.00000000
  ---------------------------------------------------
  free energy    TOTEN  =       782.77593874 eV

  energy without entropy =      782.76977818  energy(sigma->0) =      782.77388522


--------------------------------------------------------------------------------------------------------




--------------------------------------- Iteration      2(   2)  ---------------------------------------


    POTLOK:  cpu time    0.0177: real time    0.0180
    SETDIJ:  cpu time    0.0012: real time    0.0012
    EDDIAG:  cpu time    0.0638: real time    0.0640
  RMM-DIIS:  cpu time    0.2105: real time    0.2112
    ORTHCH:  cpu time    0.0046: real time    0.0046
       DOS:  cpu time    0.0002: real time    0.0002
    CHARGE:  cpu time    0.0179: real time    0.0180
    MIXING:  cpu time    0.0010: real time    0.0010
    --------------------------------------------
      LOOP:  cpu time    0.3169: real time    0.3181

 eigenvalue-minimisations  :   320
 total energy-change (2. order) :-0.3745987E+01  (-0.1014521E+02)
 number of electron       9.9999997 magnetization 
 augmentation part        1.5953675 magnetization 

 Broyden mixing:
  rms(total) = 0.11279E+02    rms(broyden)= 0.11279E+02
  rms(prec ) = 0.11282E+02
  weight for this iteration     100.00

 eigenvalues of (default mixing * dielectric matrix)
  average eigenvalue GAMMA=   1.7036
  1.7036

 Free energy of the ion-electron system (eV)
  ---------------------------------------------------
  alpha Z        PSCENC =         0.12758503
  Ewald energy   TEWEN  =      1367.24887063
  -Hartree energ DENC   =      -850.57985522
  -exchange      EXHF   =         0.00000000
  -V(xc)+E(xc)   XCENC  =        44.63919882
  PAW double counting   =     32216.63068626   -32221.73537438
  entropy T*S    EENTRO =         0.00596514
  eigenvalues    EBANDS =      -356.69754470
  atomic energy  EATOM  =       579.39041991
  Solvation  Ediel_sol  =         0.00000000
  ---------------------------------------------------
  free energy    TOTEN  =       779.02995149 eV

  energy without entropy =      779.02398635  energy(sigma->0) =      779.02796311


--------------------------------------------------------------------------------------------------------




--------------------------------------- Iteration      2(   3)  ---------------------------------------


    POTLOK:  cpu time    0.0171: real time    0.0174
    SETDIJ:  cpu time    0.0010: real time    0.0010
    EDDIAG:  cpu time    0.0640: real time    0.0641
  RMM-DIIS:  cpu time    0.2093: real time    0.2099
    ORTHCH:  cpu time    0.0047: real time    0.0047
       DOS:  cpu time    0.0002: real time    0.0002
    CHARGE:  cpu time    0.0165: real time    0.0165
    MIXING:  cpu time    0.0011: real time    0.0011
    --------------------------------------------
      LOOP:  cpu time    0.3139: real time    0.3151

 eigenvalue-minimisations  :   320
 total energy-change (2. order) : 0.5671276E+01  (-0.7278472E+00)
 number of electron       9.9999994 magnetization 
 augmentation part        1.5109532 magnetization 

 Broyden mixing:
  rms(total) = 0.13786E+01    rms(broyden)= 0.13783E+01
  rms(prec ) = 0.13808E+01
  weight for this iteration     100.00

 eigenvalues of (default mixing * dielectric matrix)
  average eigenvalue GAMMA=   1.3903
  1.3903  1.3903

 Free energy of the ion-electron system (eV)
  ---------------------------------------------------
  alpha Z        PSCENC =         0.12758503
  Ewald energy   TEWEN  =      1367.24887063
  -Hartree energ DENC   =      -870.97632623
  -exchange      EXHF   =         0.00000000
  -V(xc)+E(xc)   XCENC  =        46.27939041
  PAW double counting   =     84596.90550060   -84606.45661483
  entropy T*S    EENTRO =         0.00600037
  eigenvalues    EBANDS =      -327.82359863
  atomic energy  EATOM  =       579.39041991
  Solvation  Ediel_sol  =         0.00000000
  ---------------------------------------------------
  free energy    TOTEN  =       784.70122726 eV

  energy without entropy =      784.69522689  energy(sigma->0) =      784.69922713


--------------------------------------------------------------------------------------------------------




--------------------------------------- Iteration      2(   4)  ---------------------------------------


    POTLOK:  cpu time    0.0169: real time    0.0172
    SETDIJ:  cpu time    0.0012: real time    0.0012
    EDDIAG:  cpu time    0.0638: real time    0.0641
  RMM-DIIS:  cpu time    0.2201: real time    0.2206
    ORTHCH:  cpu time    0.0046: real time    0.0046
       DOS:  cpu time    0.0002: real time    0.0002
    CHARGE:  cpu time    0.0227: real time    0.0227
    MIXING:  cpu time    0.0019: real time    0.0019
    --------------------------------------------
      LOOP:  cpu time    0.3314: real time    0.3325

 eigenvalue-minimisations  :   327
 total energy-change (2. order) : 0.1473389E+00  (-0.1417151E-01)
 number of electron       9.9999995 magnetization 
 augmentation part        1.5050546 magnetization 

 Broyden mixing:
  rms(total) = 0.57696E+00    rms(broyden)= 0.57692E+00
  rms(prec ) = 0.58008E+00
  weight for this iteration     100.00

 eigenvalues of (default mixing * dielectric matrix)
  average eigenvalue GAMMA=   1.8340
  0.9991  2.0053  2.4978

 Free energy of the ion-electron system (eV)
  ---------------------------------------------------
  alpha Z        PSCENC =         0.12758503
  Ewald energy   TEWEN  =      1367.24887063
  -Hartree energ DENC   =      -866.42637949
  -exchange      EXHF   =         0.00000000
  -V(xc)+E(xc)   XCENC  =        46.23632572
  PAW double counting   =     75623.50842531   -75633.22892029
  entropy T*S    EENTRO =         0.00586834
  eigenvalues    EBANDS =      -332.01362896
  atomic energy  EATOM  =       579.39041991
  Solvation  Ediel_sol  =         0.00000000
  ---------------------------------------------------
  free energy    TOTEN  =       784.84856619 eV

  energy without entropy =      784.84269785  energy(sigma->0) =      784.84661008


--------------------------------------------------------------------------------------------------------




--------------------------------------- Iteration      2(   5)  ---------------------------------------


    POTLOK:  cpu time    0.0213: real time    0.0249
    SETDIJ:  cpu time    0.0023: real time    0.0023
    EDDIAG:  cpu time    0.0665: real time    0.0667
  RMM-DIIS:  cpu time    0.2253: real time    0.2258
    ORTHCH:  cpu time    0.0045: real time    0.0045
       DOS:  cpu time    0.0002: real time    0.0002
    CHARGE:  cpu time    0.0107: real time    0.0108
    MIXING:  cpu time    0.0011: real time    0.0011
    --------------------------------------------
      LOOP:  cpu time    0.3320: real time    0.3364

 eigenvalue-minimisations  :   330
 total energy-change (2. order) : 0.1584001E+00  (-0.2817741E-01)
 number of electron       9.9999995 magnetization 
 augmentation part        1.4915194 magnetization 

 Broyden mixing:
  rms(total) = 0.49042E+00    rms(broyden)= 0.49037E+00
  rms(prec ) = 0.49066E+00
  weight for this iteration     100.00

 eigenvalues of (default mixing * dielectric matrix)
  average eigenvalue GAMMA=   1.5484
  2.4048  1.7956  1.0761  0.9170

 Free energy of the ion-electron system (eV)
  ---------------------------------------------------
  alpha Z        PSCENC =         0.12758503
  Ewald energy   TEWEN  =      1367.24887063
  -Hartree energ DENC   =      -859.58900142
  -exchange      EXHF   =         0.00000000
  -V(xc)+E(xc)   XCENC  =        46.33996993
  PAW double counting   =     65780.98228028   -65791.29450499
  entropy T*S    EENTRO =         0.00582525
  eigenvalues    EBANDS =      -338.20447833
  atomic energy  EATOM  =       579.39041991
[...]
  ---------------------------------------------------
  free energy    TOTEN  =       -14.79425097 eV

  energy without entropy =      -14.80004888  energy(sigma->0) =      -14.79618361


--------------------------------------------------------------------------------------------------------




--------------------------------------- Iteration     11(   2)  ---------------------------------------


    POTLOK:  cpu time    0.0179: real time    0.0182
    SETDIJ:  cpu time    0.0014: real time    0.0014
    EDDIAG:  cpu time    0.0640: real time    0.0642
  RMM-DIIS:  cpu time    0.2124: real time    0.2129
    ORTHCH:  cpu time    0.0046: real time    0.0046
       DOS:  cpu time    0.0002: real time    0.0002
    CHARGE:  cpu time    0.0103: real time    0.0104
    MIXING:  cpu time    0.0010: real time    0.0010
    --------------------------------------------
      LOOP:  cpu time    0.3118: real time    0.3128

 eigenvalue-minimisations  :   320
 total energy-change (2. order) : 0.5062143E-04  (-0.9790537E-04)
 number of electron       9.9999930 magnetization 
 augmentation part        0.6526427 magnetization 

 Broyden mixing:
  rms(total) = 0.44823E-02    rms(broyden)= 0.44795E-02
  rms(prec ) = 0.45628E-02
  weight for this iteration     100.00

 eigenvalues of (default mixing * dielectric matrix)
  average eigenvalue GAMMA=   1.4015
  1.4015

 Free energy of the ion-electron system (eV)
  ---------------------------------------------------
  alpha Z        PSCENC =         0.12758503
  Ewald energy   TEWEN  =       248.61493590
  -Hartree energ DENC   =      -729.12941941
  -exchange      EXHF   =         0.00000000
  -V(xc)+E(xc)   XCENC  =        40.39857751
  PAW double counting   =       858.77003317     -861.21765273
  entropy T*S    EENTRO =         0.00579791
  eigenvalues    EBANDS =      -151.75447764
  atomic energy  EATOM  =       579.39041991
  Solvation  Ediel_sol  =         0.00000000
  ---------------------------------------------------
  free energy    TOTEN  =       -14.79420035 eV

  energy without entropy =      -14.79999826  energy(sigma->0) =      -14.79613299


--------------------------------------------------------------------------------------------------------




--------------------------------------- Iteration     11(   3)  ---------------------------------------


    POTLOK:  cpu time    0.0182: real time    0.0185
    SETDIJ:  cpu time    0.0012: real time    0.0012
    EDDIAG:  cpu time    0.0640: real time    0.0642
  RMM-DIIS:  cpu time    0.2099: real time    0.2103
    ORTHCH:  cpu time    0.0047: real time    0.0048
       DOS:  cpu time    0.0002: real time    0.0002
    CHARGE:  cpu time    0.0102: real time    0.0103
    MIXING:  cpu time    0.0009: real time    0.0009
    --------------------------------------------
      LOOP:  cpu time    0.3094: real time    0.3104

 eigenvalue-minimisations  :   320
 total energy-change (2. order) : 0.2438106E-04  (-0.1266545E-04)
 number of electron       9.9999930 magnetization 
 augmentation part        0.6524034 magnetization 

 Broyden mixing:
  rms(total) = 0.16565E-02    rms(broyden)= 0.16549E-02
  rms(prec ) = 0.16748E-02
  weight for this iteration     100.00

 eigenvalues of (default mixing * dielectric matrix)
  average eigenvalue GAMMA=   1.4151
  0.9220  1.9081

 Free energy of the ion-electron system (eV)
  ---------------------------------------------------
  alpha Z        PSCENC =         0.12758503
  Ewald energy   TEWEN  =       248.61493590
  -Hartree energ DENC   =      -729.23841670
  -exchange      EXHF   =         0.00000000
  -V(xc)+E(xc)   XCENC  =        40.40461826
  PAW double counting   =       860.97204054     -863.42254720
  entropy T*S    EENTRO =         0.00579791
  eigenvalues    EBANDS =      -151.64860962
  atomic energy  EATOM  =       579.39041991
  Solvation  Ediel_sol  =         0.00000000
  ---------------------------------------------------
  free energy    TOTEN  =       -14.79417597 eV

  energy without entropy =      -14.79997388  energy(sigma->0) =      -14.79610861


--------------------------------------------------------------------------------------------------------




--------------------------------------- Iteration     11(   4)  ---------------------------------------


    POTLOK:  cpu time    0.0182: real time    0.0186
    SETDIJ:  cpu time    0.0010: real time    0.0010
    EDDIAG:  cpu time    0.0639: real time    0.0641
  RMM-DIIS:  cpu time    0.2079: real time    0.2085
    ORTHCH:  cpu time    0.0046: real time    0.0046
       DOS:  cpu time    0.0002: real time    0.0002
    --------------------------------------------
      LOOP:  cpu time    0.2958: real time    0.2969

 eigenvalue-minimisations  :   280
 total energy-change (2. order) :-0.2675303E-05  (-0.1287810E-05)
 number of electron       9.9999930 magnetization 
 augmentation part        0.6524034 magnetization 

 Free energy of the ion-electron system (eV)
  ---------------------------------------------------
  alpha Z        PSCENC =         0.12758503
  Ewald energy   TEWEN  =       248.61493590
  -Hartree energ DENC   =      -729.25629394
  -exchange      EXHF   =         0.00000000
  -V(xc)+E(xc)   XCENC  =        40.40556436
  PAW double counting   =       862.08182090     -864.53310147
  entropy T*S    EENTRO =         0.00579791
  eigenvalues    EBANDS =      -151.63090725
  atomic energy  EATOM  =       579.39041991
  Solvation  Ediel_sol  =         0.00000000
  ---------------------------------------------------
  free energy    TOTEN  =       -14.79417865 eV

  energy without entropy =      -14.79997655  energy(sigma->0) =      -14.79611128


--------------------------------------------------------------------------------------------------------




 average (electrostatic) potential at core
  the test charge radii are     0.7215  0.6991
  (the norm of the test charge is              1.0000)
       1 -83.5690       2 -61.7127
 
 
 
 E-fermi :  -8.9579     XC(G=0):  -0.2320     alpha+bet : -0.0511


 k-point     1 :       0.0000    0.0000    0.0000
  band No.  band energies     occupation 
      1     -29.2520      2.00000
      2     -14.0458      2.00000
      3     -11.7383      2.00000
      4     -11.7377      2.00000
      5      -9.0421      2.00030
      6      -2.1475      0.00000
      7      -2.1469      0.00000
      8      -0.2529      0.00000
      9       0.0763      0.00000
     10       0.0934      0.00000
     11       0.4816      0.00000
     12       0.5257      0.00000
     13       1.0949      0.00000
     14       1.1120      0.00000
     15       1.1857      0.00000
     16       1.2734      0.00000

 k-point     2 :       0.2500   -0.0000    0.0000
  band No.  band energies     occupation 
      1     -29.2519      2.00000
      2     -14.0457      2.00000
      3     -11.7381      2.00000
      4     -11.7375      2.00000
      5      -9.0421      1.99996
      6      -2.1473      0.00000
      7      -2.1469      0.00000
      8      -0.1587      0.00000
      9       0.1742      0.00000
     10       0.1915      0.00000
     11       0.5592      0.00000
     12       0.6199      0.00000
     13       0.6523      0.00000
     14       0.9498      0.00000
     15       0.9693      0.00000
     16       0.9883      0.00000

 k-point     3 :       0.5000   -0.0000    0.0000
  band No.  band energies     occupation 
      1     -29.2519      2.00000
      2     -14.0456      2.00000
      3     -11.7381      2.00000
      4     -11.7376      2.00000
      5      -9.0420      1.99982
      6      -2.1477      0.00000
      7      -2.1473      0.00000
      8       0.0513      0.00000
      9       0.2309      0.00000
     10       0.4419      0.00000
     11       0.4700      0.00000
     12       0.4871      0.00000
     13       0.5315      0.00000
     14       0.8206      0.00000
     15       0.8650      0.00000
     16       0.9026      0.00000

 k-point     4 :       0.0000    0.2500    0.0000
  band No.  band energies     occupation 
      1     -29.2519      2.00000
      2     -14.0457      2.00000
      3     -11.7381      2.00000
      4     -11.7375      2.00000
      5      -9.0420      1.99993
      6      -2.1474      0.00000
      7      -2.1469      0.00000
      8      -0.1575      0.00000
      9       0.1745      0.00000
     10       0.1915      0.00000
     11       0.5625      0.00000
     12       0.6214      0.00000
     13       0.6494      0.00000
     14       0.9446      0.00000
     15       0.9715      0.00000
     16       0.9895      0.00000

 k-point     5 :       0.2500    0.2500    0.0000
  band No.  band energies     occupation 
      1     -29.2519      2.00000
      2     -14.0457      2.00000
      3     -11.7381      2.00000
      4     -11.7375      2.00000
      5      -9.0420      1.99996
      6      -2.1475      0.00000
      7      -2.1467      0.00000
      8      -0.1585      0.00000
      9       0.1742      0.00000
     10       0.1915      0.00000
     11       0.5593      0.00000
     12       0.6202      0.00000
     13       0.6507      0.00000
     14       0.9477      0.00000
     15       0.9690      0.00000
     16       0.9883      0.00000

 k-point     6 :       0.5000    0.2500    0.0000
  band No.  band energies     occupation 
      1     -29.2520      2.00000
      2     -14.0457      2.00000
      3     -11.7382      2.00000
      4     -11.7376      2.00000
      5      -9.0421      2.00022
      6      -2.1479      0.00000
      7      -2.1472      0.00000
      8       0.0169      0.00000
      9       0.3505      0.00000
     10       0.3847      0.00000
     11       0.4272      0.00000
     12       0.5162      0.00000
     13       0.7140      0.00000
     14       0.7675      0.00000
     15       0.7843      0.00000
     16       0.8149      0.00000

 k-point     7 :      -0.2500    0.2500    0.0000
  band No.  band energies     occupation 
      1     -29.2520      2.00000
      2     -14.0457      2.00000
      3     -11.7382      2.00000
      4     -11.7377      2.00000
      5      -9.0421      2.00003
      6      -2.1477      0.00000
      7      -2.1474      0.00000
      8       0.0192      0.00000
      9       0.3509      0.00000
     10       0.3848      0.00000
     11       0.4285      0.00000
     12       0.5134      0.00000
     13       0.7143      0.00000
     14       0.7676      0.00000
     15       0.7840      0.00000
     16       0.8154      0.00000

 k-point     8 :       0.0000    0.5000    0.0000
  band No.  band energies     occupation 
      1     -29.2519      2.00000
      2     -14.0456      2.00000
      3     -11.7382      2.00000
      4     -11.7375      2.00000
      5      -9.0420      1.99979
      6      -2.1481      0.00000
      7      -2.1472      0.00000
      8       0.0567      0.00000
      9       0.2315      0.00000
     10       0.4410      0.00000
     11       0.4702      0.00000
     12       0.4872      0.00000
     13       0.5322      0.00000
     14       0.8144      0.00000
     15       0.8606      0.00000
     16       0.9291      0.00000

 k-point     9 :       0.2500    0.5000    0.0000
  band No.  band energies     occupation 
      1     -29.2520      2.00000
      2     -14.0457      2.00000
      3     -11.7382      2.00000
      4     -11.7376      2.00000
      5      -9.0421      2.00004
      6      -2.1480      0.00000
      7      -2.1470      0.00000
      8       0.0198      0.00000
      9       0.3501      0.00000
     10       0.3848      0.00000
     11       0.4257      0.00000
     12       0.5162      0.00000
     13       0.7142      0.00000
     14       0.7676      0.00000
     15       0.7842      0.00000
     16       0.8149      0.00000

 k-point    10 :       0.5000    0.5000    0.0000
  band No.  band energies     occupation 
      1     -29.2519      2.00000
      2     -14.0456      2.00000
      3     -11.7382      2.00000
      4     -11.7376      2.00000
      5      -9.0420      1.99982
      6      -2.1481      0.00000
      7      -2.1469      0.00000
      8       0.0533      0.00000
      9       0.2280      0.00000
     10       0.4421      0.00000
     11       0.4701      0.00000
     12       0.4869      0.00000
     13       0.5311      0.00000
     14       0.8210      0.00000
     15       0.8628      0.00000
     16       0.9015      0.00000


--------------------------------------------------------------------------------------------------------


 soft charge-density along one line, spin component           1
         0         1         2         3         4         5         6         7         8         9
 total charge-density along one line
 
 pseudopotential strength for first ion, spin component:           1
 14.237 -17.484   0.001   0.136   0.055  -0.001  -0.171  -0.069
-17.484  21.506  -0.001  -0.172  -0.069   0.001   0.217   0.088
  0.001  -0.001 -11.059  -0.001  -0.000  13.797   0.001   0.001
  0.136  -0.172  -0.001 -11.182  -0.050   0.001  13.959   0.066
  0.055  -0.069  -0.000  -0.050 -11.079   0.001   0.066  13.824
 -0.001   0.001  13.797   0.001   0.001 -17.160  -0.001  -0.001
 -0.171   0.217   0.001  13.959   0.066  -0.001 -17.374  -0.087
 -0.069   0.088   0.001   0.066  13.824  -0.001  -0.087 -17.195
 total augmentation occupancy for first ion, spin component:           1
  3.013   0.570  -0.005  -0.664  -0.268  -0.002  -0.281  -0.114
  0.570   0.210  -0.003  -0.507  -0.205  -0.001  -0.140  -0.056
 -0.005  -0.003   1.971   0.005   0.001   0.225   0.002   0.000
 -0.664  -0.507   0.005   2.762   0.319   0.002   0.486   0.105
 -0.268  -0.205   0.001   0.319   2.099   0.000   0.105   0.267
 -0.002  -0.001   0.225   0.002   0.000   0.026   0.001   0.000
 -0.281  -0.140   0.002   0.486   0.105   0.001   0.109   0.033
 -0.114  -0.056   0.000   0.105   0.267   0.000   0.033   0.039


------------------------ aborting loop because EDIFF is reached ----------------------------------------


    CHARGE:  cpu time    0.0107: real time    0.0107
    FORLOC:  cpu time    0.0009: real time    0.0009
    FORNL :  cpu time    0.0716: real time    0.0720
    STRESS:  cpu time    0.0268: real time    0.0269
    FORCOR:  cpu time    0.0205: real time    0.0205
    FORHAR:  cpu time    0.0050: real time    0.0050
    MIXING:  cpu time    0.0007: real time    0.0007
    OFIELD:  cpu time    0.0000: real time    0.0000
 only isotrope contributions calculated
  for stress because ISIF=1 (only pressure is correct)

  FORCE on cell =-STRESS in cart. coord.  units (eV):
  Direction    XX          YY          ZZ          XY          YZ          ZX
  --------------------------------------------------------------------------------------
  Alpha Z     0.12759     0.12759     0.12759
  Ewald     123.36217    80.98174    44.27100     0.72484     1.78504   104.39296
  Hartree   320.27063   305.35391   103.62146     0.25379     0.62305    36.41694
  E(xc)     -43.82928   -43.98520   -43.03212     0.00278     0.00659     0.38542
  Local    -575.34334  -521.74900  -260.66149    -0.91267    -2.25212  -131.65397
  n-local   -22.24425   -22.24425   -22.24425     0.00000     0.00000     0.00000
  augment     6.06575     6.06575     6.06575     0.00000     0.00000     0.00000
  Kinetic   188.53813   190.73434   177.26549    -0.03438    -0.09244    -5.44430
  Fock        0.00000     0.00000     0.00000     0.00000     0.00000     0.00000
  -------------------------------------------------------------------------------------
  Total      -3.05261    -4.71513     5.41342     0.03436     0.07013     4.09704
  in kB      -1.42804    -2.20579     2.53246     0.01607     0.03281     1.91664
  external pressure =       -0.37 kB  Pullay stress =        0.00 kB


 VOLUME and BASIS-vectors are now :
 -----------------------------------------------------------------------------
  energy-cutoff  :      400.00
  volume of cell :     3424.83
      direct lattice vectors                 reciprocal lattice vectors
    11.214359184  0.000000000  0.000000000     0.089171390 -0.051483119  0.000000000
     5.607178664  9.711919634  0.000000000     0.000000000  0.102966256  0.000000000
     0.000000000  0.000000000 31.445607950     0.000000000  0.000000000  0.031800943

  length of vectors
    11.214359184 11.214358455 31.445607950     0.102966249  0.102966256  0.031800943


 FORCES acting on ions
    electron-ion (+dipol)            ewald-force                    non-local-force                 convergence-correction
 -----------------------------------------------------------------------------------------------
   -.762E+02 -.130E+01 -.191E+03   0.984E+02 0.168E+01 0.246E+03   -.223E+02 -.369E+00 -.551E+02   -.234E-02 -.341E-04 -.540E-02
   0.879E+02 0.150E+01 0.220E+03   -.984E+02 -.168E+01 -.246E+03   0.105E+02 0.185E+00 0.261E+02   0.502E-03 0.980E-05 0.148E-02
 -----------------------------------------------------------------------------------------------
   0.117E+02 0.202E+00 0.290E+02   0.000E+00 0.000E+00 0.000E+00   -.117E+02 -.184E+00 -.291E+02   -.184E-02 -.243E-04 -.392E-02
 
 
 POSITION                                       TOTAL-FORCE (eV/Angst)
 -----------------------------------------------------------------------------------
      6.46527      6.00800      6.57548        -0.007841      0.003733     -0.035800
      6.03646      6.00067      5.51501         0.007841     -0.003733      0.035800
 -----------------------------------------------------------------------------------
    total drift:                                0.006293      0.017805     -0.015950


--------------------------------------------------------------------------------------------------------



  FREE ENERGIE OF THE ION-ELECTRON SYSTEM (eV)
  ---------------------------------------------------
  free  energy   TOTEN  =       -14.79417865 eV

  energy  without entropy=      -14.79997655  energy(sigma->0) =      -14.79611128
 
 d Force = 0.1137192E-02[ 0.151E-03, 0.212E-02]  d Energy = 0.1139580E-02-0.239E-05
 d Force =-0.1108461E+01[-0.111E+01,-0.110E+01]  d Ewald  =-0.1108453E+01-0.744E-05


--------------------------------------------------------------------------------------------------------


    POTLOK:  cpu time    0.0194: real time    0.0195


--------------------------------------------------------------------------------------------------------


 stress matrix after NEB project (eV)
     -3.05261      0.03436      4.09704
      0.03436     -4.71513      0.07013
      4.09704      0.07013      5.41342
  FORCES: max atom, RMS     0.036838    0.036838
  FORCE total and by dimension    0.052096    0.035800
  Stress total and by dimension    9.718010    5.413420


--------------------------------------------------------------------------------------------------------


  
 reached required accuracy - stopping structural energy minimisation
     LOOP+:  cpu time    1.4374: real time    1.4491
    4ORBIT:  cpu time    0.0000: real time    0.0000

 total amount of memory used by VASP MPI-rank0    41581. kBytes
=======================================================================

   base      :      30000. kBytes
   nonlr-proj:         52. kBytes
   fftplans  :       3595. kBytes
   grid      :       5433. kBytes
   one-center:          3. kBytes
   wavefun   :       2498. kBytes
 
  
  
 General timing and accounting informations for this job:
 ========================================================
  
                  Total CPU time used (sec):       48.515
                            User time (sec):       48.168
                          System time (sec):        0.347
                         Elapsed time (sec):       49.216
  
                   Maximum memory used (kb):      233384.
                   Average memory used (kb):           0.
  
                          Minor page faults:        74369
                          Major page faults:            0
                 Voluntary context switches:         1310
