Pt                                      
           1
    11.214359    0.000000    0.000000
     5.607179    9.711920    0.000000
     0.000000    0.000000   31.445608
   O    C 
   1   1
Direct configuration=     1
   0.27042371  0.61869003  0.21197415
   0.22612963  0.61779753  0.17251471
Direct configuration=     2
   0.25231661  0.61830303  0.19583143
   0.24423673  0.61818453  0.18865743
Direct configuration=     3
   0.27038656  0.61868924  0.21194103
   0.22616677  0.61779833  0.17254783
Direct configuration=     4
   0.27034965  0.61868845  0.21190812
   0.22620369  0.61779912  0.17258074
Direct configuration=     5
   0.26133313  0.61849574  0.20386977
   0.23522021  0.61799183  0.18061909
Direct configuration=     6
   0.26976712  0.61867600  0.21138879
   0.22678621  0.61781157  0.17310007
Direct configuration=     7
   0.26555013  0.61858587  0.20762928
   0.23100321  0.61790170  0.17685958
Direct configuration=     8
   0.26813805  0.61864118  0.20993645
   0.22841529  0.61784638  0.17455241
Direct configuration=     9
   0.26685440  0.61861374  0.20879206
   0.22969894  0.61787382  0.17569680
Direct configuration=    10
   0.26727623  0.61862276  0.20916813
   0.22927711  0.61786480  0.17532073
Direct configuration=    11
   0.26720689  0.61862128  0.20910631
   0.22934645  0.61786629  0.17538255
