LAMMPS data file via write_data, version 29 Sep 2021, timestep = 50000

1029 atoms
2 atom types
686 bonds
1 bond types
343 angles
1 angle types

0 21.7757 xlo xhi
0 21.7757 ylo yhi
0 21.7757 zlo zhi

Masses

1 15.9994
2 1.008

Pair Coeffs # lj/charmm/coul/long

1 0.1553 3.166 0.1553 3.166
2 0 0 0 0

Bond Coeffs # harmonic

1 600 1

Angle Coeffs # harmonic

1 75 109.47

Atoms # full

529 177 1 -0.8476 3.6170623946300107 2.8094420147420793 6.794528646679067 1 1 0
530 177 2 0.4238 2.7387474837345516 2.5233325028419684 7.177549362617557 1 1 0
531 177 2 0.4238 4.246839171434927 3.0358397999056166 7.537579778480638 1 1 0
523 175 1 -0.8476 2.9478124861823622 5.764619936509415 2.873101102498988 0 -1 0
524 175 2 0.4238 3.093528758032642 6.301371446502677 3.7041635575824396 0 -1 0
430 144 1 -0.8476 6.069016555341762 6.872194668664624 8.06622504137697 0 0 1
63 21 2 0.4238 4.101247776394072 5.040358744506263 7.668955505151335 1 0 1
431 144 2 0.4238 5.61698810168656 7.664011332222109 8.476951689145015 0 0 1
432 144 2 0.4238 5.985155322241167 6.919672787845385 7.0708793556225835 0 0 1
954 318 2 0.4238 0.606317485955085 8.246235395699854 0.6067236560984658 1 1 1
952 318 1 -0.8476 1.3211058191836997 8.452319888652331 1.2750100887613736 1 1 1
642 214 2 0.4238 3.824325297449267 7.817070738710017 5.365333410048893 1 -1 0
641 214 2 0.4238 3.004829853501562 6.6470594215554115 6.156615032769454 1 -1 0
910 304 1 -0.8476 2.0367594478260678 3.5766570321809863 1.5485432456972366 -1 0 1
911 304 2 0.4238 1.0531780549802652 3.414935816655813 1.628638092638393 -1 0 1
640 214 1 -0.8476 2.977265858571766 7.286051873117327 5.387896120651868 1 -1 0
525 175 2 0.4238 3.3605698101039247 6.2371926073599155 2.094444035599036 0 -1 0
912 304 2 0.4238 2.266009787422407 4.453104799069289 1.9719635840768481 -1 0 1
80 27 2 0.4238 4.395901602365132 3.3510725874742637 5.262318757079699 0 0 0
79 27 1 -0.8476 4.620721049098044 3.057066170394347 4.333331419911918 0 0 0
953 318 2 0.4238 2.078871447153888 7.809754655194975 1.1614269463499762 1 1 1
223 75 1 -0.8476 5.588729237149987 4.091832119256164 8.304937163812957 -1 1 -1
81 27 2 0.4238 3.8771486147006278 3.310251477048697 3.714463741653994 0 0 0
225 75 2 0.4238 6.439343837016586 3.67019592814041 8.619068519620528 -1 1 -1
224 75 2 0.4238 5.736739822499169 5.069423226985719 8.155239280046986 -1 1 -1
206 69 2 0.4238 1.033982840442297 8.296341432052296 2.9983331635112855 0 0 1
207 69 2 0.4238 1.7302463183580121 7.955795269155228 4.435648175734365 0 0 1
61 21 1 -0.8476 3.2670668556681757 5.588965101519512 7.725292021160823 1 0 1
851 284 2 0.4238 5.194849951685234 9.0170373337465 2.216192125026314 1 0 0
62 21 2 0.4238 2.519734813012041 5.024224516038741 8.075382661994375 1 0 1
216 72 2 0.4238 2.967907430297454 6.838183827677332 9.030989998753281 1 0 1
574 192 1 -0.8476 3.5770014554211365 7.2723524003956745 0.4790618045234445 0 0 1
306 102 2 0.4238 6.756165393198341 8.077694078394199 0.6860392681304447 1 0 0
348 116 2 0.4238 6.054701227993966 4.037035803667377 4.127057973356484 1 1 1
346 116 1 -0.8476 6.967057637782858 4.443602429217015 4.0790041902347545 1 1 1
105 35 2 0.4238 0.8454872952701735 3.104027550297808 8.604538404107794 1 1 1
548 183 2 0.4238 2.2491024962033666 8.914709897994339 10.003012201592554 0 -1 0
214 72 1 -0.8476 2.775410820494844 7.216566302406278 9.936402708838136 1 0 1
547 183 1 -0.8476 2.3005467725414532 9.85143624357758 9.656751252089444 0 -1 0
471 157 2 0.4238 5.022133954899053 8.823526768922557 4.44191690251219 -1 -1 0
254 85 2 0.4238 2.2716881982454495 10.418214065129044 1.10260976230582 0 0 0
575 192 2 0.4238 4.426268856237836 7.800206784667533 0.48976873076122185 0 0 1
470 157 2 0.4238 6.113839688525542 9.00213067503175 5.643126627951517 -1 -1 0
1014 338 2 0.4238 5.377123274371977 9.780714585367734 9.954933627653139 1 -1 0
469 157 1 -0.8476 5.237819299676257 8.591387948582394 5.390384711376108 -1 -1 0
259 87 1 -0.8476 0.7694042286352044 4.772648666263637 8.917331052230143 1 1 2
698 233 2 0.4238 2.9310006345468795 10.14828131923541 7.809513770043899 0 0 0
103 35 1 -0.8476 1.3060197602618275 2.2280818401458444 8.460905837592225 1 1 1
850 284 1 -0.8476 4.7698337936027215 9.482437915228749 2.9925711683570553 1 0 0
445 149 1 -0.8476 5.987063722338538 1.18628203157059 5.905684903124658 0 -1 1
845 282 2 0.4238 2.7734128303637364 1.4374979704683528 1.6393186311543737 1 0 0
852 284 2 0.4238 3.9042222340180266 9.891005858065446 2.7031066422158334 1 0 0
304 102 1 -0.8476 5.949062509585778 8.552952910279606 0.33573393124682066 1 0 0
555 185 2 0.4238 5.985542000784799 0.2144654041042194 3.964290096049358 1 -1 1
58 20 1 -0.8476 6.942284254128368 2.5572200872961535 0.9172292357290311 -1 0 1
170 57 2 0.4238 6.616062028730475 5.414452960650821 0.0047370486503602195 -1 1 1
104 35 2 0.4238 0.6814886474719284 1.4815753704858803 8.690446540446489 1 1 1
261 87 2 0.4238 0.34068325951770834 5.402171463804059 9.565328247900336 1 1 2
844 282 1 -0.8476 2.5987026043565713 0.46533848554573626 1.4831698815003167 1 0 0
481 161 1 -0.8476 5.471355149103147 0.1344973163939646 10.031585042163798 0 -1 1
473 158 2 0.4238 0.1657363331262892 1.6220486427943936 0.3927846864401611 1 1 2
1012 338 1 -0.8476 5.946599998621831 9.369418617530934 9.243223175983237 1 -1 0
503 168 2 0.4238 1.3946270725851981 10.173441178317724 4.480997112121383 1 0 1
447 149 2 0.4238 5.57620474296935 0.4218799707736101 6.402559631331277 0 -1 1
697 233 1 -0.8476 3.337913123592519 10.418434725186263 6.936908359717213 0 0 0
446 149 2 0.4238 5.268684150182832 1.7132677643875547 5.451573143920866 0 -1 1
1013 338 2 0.4238 6.673483542606493 10.007013031160284 8.988049430259506 1 -1 0
30 10 2 0.4238 6.0508170572655064 10.841366479287188 3.2883236770890956 0 0 1
939 313 2 0.4238 6.559527061028021 1.6658473864682737 9.618089167873203 0 0 0
816 272 2 0.4238 6.697368789500834 5.482155349607694 10.339491024445461 0 1 0
205 69 1 -0.8476 0.912641124884452 8.321152894683955 3.990634533456403 0 0 1
699 233 2 0.4238 4.0115473743017755 9.734317447520606 6.657264031259818 0 0 0
260 87 2 0.4238 0.5334484779410361 5.043216598570533 7.983993684137123 1 1 2
768 256 2 0.4238 1.8469309194275978 3.884228622803458 10.677145935158142 1 0 1
585 195 2 0.4238 0.7144872383262083 10.539844997486911 9.171195956196744 1 0 0
513 171 2 0.4238 0.07374375763475172 0.5135334213881025 3.720098395113213 0 0 1
846 282 2 0.4238 3.399224606664321 0.04764423206029598 1.053406671947905 1 0 0
549 183 2 0.4238 2.8146737873840415 10.417295368424446 10.301326059124298 0 -1 0
474 158 2 0.4238 1.3612009358586072 0.5195938764681892 0.24417667681762822 1 1 2
215 72 2 0.4238 3.1709357456137868 6.622524457968627 10.636884565547165 1 0 1
834 278 2 0.4238 2.207665355285465 0.012209347136327153 10.133424303920899 2 1 -1
197 66 2 0.4238 4.939095103205688 1.9138263492006187 10.832163818763302 1 1 -2
750 250 2 0.4238 3.526694374094563 2.821663711716818 0.3057297601710651 2 1 1
127 43 1 -0.8476 7.688068270153324 10.020342954092946 5.963465153650793 0 0 0
394 132 1 -0.8476 9.672926087202823 10.749976161240223 0.20517407902537266 -1 1 1
60 20 2 0.4238 7.399119096402384 2.6525900875655823 1.8016538829308253 -1 0 1
395 132 2 0.4238 9.970653984561109 9.826899416802547 0.4486635895111406 -1 1 1
743 248 2 0.4238 11.651386831150687 8.091932742369169 1.0043596809079065 0 0 0
985 329 1 -0.8476 12.050274698428133 0.8670532879023494 4.630928949635269 0 2 1
623 208 2 0.4238 11.780268602299124 0.29681087061582995 2.909210841171263 -1 -1 1
771 257 2 0.4238 14.06938932725248 0.7778428497365076 8.812867369462245 0 1 0
927 309 2 0.4238 12.350028721573645 0.37539026696400496 0.4356411023700672 0 1 1
800 267 2 0.4238 8.754891134045032 7.030837814514256 0.6550130865545247 1 -1 1
801 267 2 0.4238 8.015311306115136 6.641737052586663 2.0579559111366583 1 -1 1
685 229 1 -0.8476 9.933110890155932 9.057318474398397 4.276856534274023 0 -1 1
347 116 2 0.4238 7.615428426738667 3.7671598735495344 3.729661809084347 1 1 1
102 34 2 0.4238 11.316044223954068 10.160432512902796 4.241805209672571 0 0 1
686 229 2 0.4238 9.151170751138714 9.404234493512877 4.794755207056711 0 -1 1
926 309 2 0.4238 13.582025302874841 1.4395902760368744 0.30801219498724325 0 1 1
129 43 2 0.4238 8.357431179375952 9.900942626746998 6.696743216154536 0 0 0
173 58 2 0.4238 7.5535464803226615 2.5737943719005587 5.986605574497369 0 0 0
789 263 2 0.4238 8.19609890053011 0.9283285476493941 3.421983240113001 1 1 -1
174 58 2 0.4238 7.966396750443885 2.302133290267045 7.543005457162503 0 0 0
745 249 1 -0.8476 9.770707622896241 9.876935767103438 7.6707288660962805 0 1 0
747 249 2 0.4238 10.127849462206022 8.946952225919988 7.757801194423745 0 1 0
769 257 1 -0.8476 13.774850467619675 1.112012222436966 7.917559028812548 0 1 0
168 56 2 0.4238 9.453575453986394 3.1806651973140494 1.7664045501265209 0 1 2
902 301 2 0.4238 13.008445422096257 4.750192930469018 6.805776574229129 0 1 0
901 301 1 -0.8476 12.334129292212278 5.218819721562035 6.235087074880902 0 1 0
418 140 1 -0.8476 12.586318104493733 8.689664122827658 9.491968968362277 -1 0 1
419 140 2 0.4238 11.855676839915755 8.219613014463283 8.996776847345068 -1 0 1
986 329 2 0.4238 11.686940492640266 1.787791321242354 4.7731648843966035 0 2 1
903 301 2 0.4238 12.640722687228699 5.212123652991262 5.283270091730964 0 1 0
237 79 2 0.4238 11.197094796003304 5.149041856901826 8.057921048256807 -1 0 0
905 302 2 0.4238 8.285060672221025 5.764733254467293 3.740243057615393 0 0 0
172 58 1 -0.8476 8.299988912716023 2.6077171337267555 6.651190136508286 0 0 0
770 257 2 0.4238 12.775697314942137 1.130967029469697 7.881047301067876 0 1 0
203 68 2 0.4238 9.862486725841054 3.00343352326746 5.467784597172028 0 0 1
904 302 1 -0.8476 9.080952543572854 6.274804356586124 3.4140786876223936 0 0 0
507 169 2 0.4238 10.54493469096492 2.345825909917144 8.432042362650746 1 0 0
506 169 2 0.4238 10.156793716207757 0.8718028976613366 7.846185234183729 1 0 0
505 169 1 -0.8476 10.82338718890741 1.3865100669255475 8.385378577458743 1 0 0
368 123 2 0.4238 14.045422175164937 4.6044422720945875 3.478084424007502 0 0 0
938 313 2 0.4238 8.112262707476942 2.1087148248655456 9.8620295751151 0 0 0
937 313 1 -0.8476 7.341769728389172 2.149886180164309 9.22591181782456 0 0 0
235 79 1 -0.8476 10.510034605402838 4.471950714408477 8.32154162133668 -1 0 0
906 302 2 0.4238 9.743562113374306 5.640103588038934 3.016456426832892 0 0 0
398 133 2 0.4238 13.575810562549732 10.02883987343024 10.552041127410638 0 -1 0
691 231 1 -0.8476 14.214382057065924 5.184510608025026 0.8132422664079777 -1 1 1
236 79 2 0.4238 9.597784557182356 4.823480854981196 8.111241488499655 -1 0 0
202 68 1 -0.8476 10.620348233787364 3.115130016535572 4.8250009810449095 0 0 1
204 68 2 0.4238 11.176121719277573 3.9003024809387594 5.098168768634199 0 0 1
303 101 2 0.4238 14.203548202685347 8.391785108278595 2.412110049312623 0 0 0
302 101 2 0.4238 13.681677059798368 9.37948194397309 3.6032153422890096 0 0 0
367 123 1 -0.8476 13.13699491567119 4.991702282133532 3.635530689433676 0 0 0
301 101 1 -0.8476 14.34516175405868 8.671330788857077 3.3617414442255735 0 0 0
369 123 2 0.4238 12.890553245461959 5.585656218261844 2.8697076259919236 0 0 0
661 221 1 -0.8476 10.73904782790946 7.337023213395881 7.922943363190432 -1 0 1
933 311 2 0.4238 13.79775857912176 6.769977710357307 0.8268972018411624 0 1 0
662 221 2 0.4238 11.228524463343001 6.760146149375543 7.269012790708103 -1 0 1
787 263 1 -0.8476 8.324773458611048 1.9172293625677541 3.347699567780047 1 1 -1
663 221 2 0.4238 10.003837462068951 6.809074457802334 8.34807491546109 -1 0 1
420 140 2 0.4238 13.466167074445094 8.274142783344836 9.26130233056175 -1 0 1
693 231 2 0.4238 13.710995550603828 4.423582167897381 1.2226196761305361 -1 1 1
788 263 2 0.4238 9.130816842587071 2.1889006470361134 3.8735215442560964 1 1 -1
941 314 2 0.4238 8.76834144122072 7.211170187755001 10.265028527892284 -1 1 0
687 229 2 0.4238 9.668258410118671 8.224051373015993 3.7915531078058864 0 -1 1
166 56 1 -0.8476 9.60096944089375 4.169152827231187 1.800566303473634 0 1 2
799 267 1 -0.8476 7.888196652246757 7.048974110512404 1.153522466140119 1 -1 1
931 311 1 -0.8476 13.656725088554028 7.75927952514563 0.8641908259575314 0 1 0
987 329 2 0.4238 12.857250329382932 0.7345800555404629 5.206464578772115 0 2 1
940 314 1 -0.8476 8.653461040835985 6.684437914634968 9.422795704569541 -1 1 0
899 300 2 0.4238 8.823258524538373 10.544251811320906 9.347256583325107 1 2 0
167 56 2 0.4238 9.771749799079165 4.512796583766476 0.8771252278961855 0 1 2
112 38 1 -0.8476 14.493905687711298 2.4545056831036796 1.3497040502711033 1 1 2
100 34 1 -0.8476 12.173230072787147 10.476344027815527 3.8350718468411316 0 0 1
59 20 2 0.4238 7.266764875914535 1.7279813042261007 0.46217354998055665 -1 0 1
333 111 2 0.4238 11.399207631069691 0.8075386248590679 10.151761098980765 1 1 -1
942 314 2 0.4238 7.851413258598099 7.018365765719438 8.927607344474279 -1 1 0
746 249 2 0.4238 10.527104405046467 10.510644907772049 7.5086266816359775 0 1 0
898 300 1 -0.8476 8.441796440265424 10.81578601780901 10.23086072161034 1 2 0
849 283 2 0.4238 13.684030691594945 4.373138877022355 9.949578488600892 0 0 1
243 81 2 0.4238 14.244558095748651 2.459333632011842 6.95536608930759 -1 2 2
847 283 1 -0.8476 14.171362693780283 4.8246694936599415 9.202164114031103 0 0 1
742 248 1 -0.8476 10.73575545748185 8.229227085600485 0.6265103897144572 0 0 0
848 283 2 0.4238 14.505907673195335 4.136347196271883 8.558508943016887 0 0 1
720 240 2 0.4238 20.7684448607335 3.156056875547872 0.7024001041688557 0 0 1
497 166 2 0.4238 21.098531336076416 10.726075849775007 0.4555553811104556 -1 1 1
191 64 2 0.4238 18.111267836920273 3.115256490036914 0.18702279828520463 0 2 -1
664 222 1 -0.8476 15.896350460075212 10.867795251441688 2.0643848997479872 0 0 1
810 270 2 0.4238 14.682271983305132 0.2056668846774345 6.66957764967016 -1 1 1
894 298 2 0.4238 17.719266475211715 7.3321729227776 3.073261758463793 -1 0 1
666 222 2 0.4238 16.88729738181928 10.770396891627758 2.1567843410882204 0 0 1
39 13 2 0.4238 17.018154147463065 5.157604874908643 10.152305779734771 0 0 -1
148 50 1 -0.8476 18.451803600021222 1.0227834182022952 4.788929221543901 0 1 0
149 50 2 0.4238 17.887541541584916 1.183151736198726 3.979058695879892 0 1 0
249 83 2 0.4238 16.631898160003107 10.18606546583159 8.568792417935171 -1 0 -1
184 62 1 -0.8476 17.022283096314187 1.7004536546130058 6.864074031327002 0 0 -1
242 81 2 0.4238 15.65724980622887 2.8604812126829784 6.24121767421007 -1 2 2
1025 342 2 0.4238 15.861588203269264 0.20420304056170438 9.609091810207799 0 1 0
636 212 2 0.4238 16.310693677877822 0.04724201422709988 2.8434216346712122 0 0 0
668 223 2 0.4238 17.12270342575108 0.14416799252813806 7.729899137229384 -1 1 0
998 333 2 0.4238 20.048566397937 0.7409237820545845 9.839098997147161 0 0 0
38 13 2 0.4238 18.50228329197116 5.807311018633947 9.94768663374553 0 0 -1
514 172 1 -0.8476 18.336830449547872 9.997460791747264 2.6520862467247426 0 1 0
113 38 2 0.4238 14.844594351900986 1.8436800611792958 2.0595701417920624 1 1 2
247 83 1 -0.8476 16.672286292670275 10.527588774828844 9.507797737245763 -1 0 -1
718 240 1 -0.8476 21.26193994212313 2.9856584490673868 1.5552931797977343 0 0 1
719 240 2 0.4238 20.85302354224866 3.5260451299000275 2.290663418810507 0 0 1
892 298 1 -0.8476 18.49275515685251 7.341218641192811 2.43951649862624 -1 0 1
114 38 2 0.4238 15.258918289083361 2.8388551735495615 0.8329532482296608 1 1 2
634 212 1 -0.8476 15.950778610880489 0.8653610904429913 3.291909299960208 0 0 0
192 64 2 0.4238 17.293206070395087 2.139347100409428 1.2092762863775421 0 2 -1
678 226 2 0.4238 20.495065160992365 5.6198864294714586 6.585924758712749 -1 0 -1
802 268 1 -0.8476 16.14286861121167 10.625989140953136 6.361354287297033 0 -1 0
190 64 1 -0.8476 17.506705746759724 3.0897656167703182 0.9831730203850152 0 2 -1
163 55 1 -0.8476 20.14557784704111 4.124997028749722 3.8862123897523255 -1 0 1
621 207 2 0.4238 15.419377751483173 8.209282431879508 4.502312830072944 1 0 0
635 212 2 0.4238 15.314023423317675 0.5964858554158328 4.014576903240049 0 0 0
665 222 2 0.4238 15.44009158627361 10.161931174818081 2.606218509639773 0 0 1
997 333 1 -0.8476 19.899401362579727 0.8774673966926761 8.85975927746302 0 0 0
999 333 2 0.4238 19.387503079269727 1.7243062796643274 8.715452455137468 0 0 0
115 39 1 -0.8476 20.605833530894788 6.736874443363391 4.380737253680312 0 1 0
512 171 2 0.4238 21.099098973689113 1.7817961727066791 3.0164516750083026 -1 0 1
618 206 2 0.4238 20.381159578829962 6.903566105416049 9.448685161158075 0 -1 -1
588 196 2 0.4238 16.580555661097584 4.926117302961859 5.005523647090166 0 0 0
165 55 2 0.4238 19.17729783646088 3.9623769697520896 3.6965056294409244 -1 0 1
465 155 2 0.4238 19.558470121812533 3.872151772779866 7.509456462240762 0 1 0
164 55 2 0.4238 20.29857101348823 5.103658290883094 4.02338613609927 -1 0 1
464 155 2 0.4238 18.376940324444263 3.9488825407541066 8.634056931254163 0 1 0
342 114 2 0.4238 18.1721355603586 10.674299640813427 0.15580332179497067 0 0 1
1024 342 1 -0.8476 15.086189121706724 0.41764819334634345 10.203396282146873 0 1 0
312 104 2 0.4238 19.48716845532777 8.27356364152 7.400446113057407 0 0 0
177 59 2 0.4238 17.554433999085756 9.194368802793273 10.588691311275621 -1 1 -1
803 268 2 0.4238 15.973351936148113 9.786363151424263 5.845319073866864 0 -1 0
241 81 1 -0.8476 14.790879180793372 3.2146240420777072 6.593330800200465 -1 2 2
893 298 2 0.4238 19.286386492201288 6.917551095437765 2.8761575498343066 -1 0 1
676 226 1 -0.8476 20.877495839141073 4.709604289801363 6.744459816617635 -1 0 -1
677 226 2 0.4238 21.174646376340615 4.316715940721555 5.874206804206814 -1 0 -1
511 171 1 -0.8476 20.96688185580235 0.9587093349506138 3.568761902257668 -1 0 1
463 155 1 -0.8476 18.874646765916026 3.34378039664277 8.012655493074469 0 1 0
596 199 2 0.4238 16.967638634814595 3.6757274015780235 2.6646373020216263 -1 1 0
956 319 2 0.4238 18.543678427175852 7.467867650551889 0.49060100315849536 -1 0 1
186 62 2 0.4238 17.527500329414153 2.2907770684133664 7.4935766547739915 0 0 -1
310 104 1 -0.8476 19.997015297406733 8.065558287342993 8.235185865327693 0 0 0
1018 340 1 -0.8476 18.76114951868215 8.333251718119984 5.6048158669966535 -1 0 0
515 172 2 0.4238 18.339736686429145 10.267276046510709 3.614994221301584 0 1 0
586 196 1 -0.8476 16.149866738706184 5.366563400766333 5.7932506635087035 0 0 0
597 199 2 0.4238 16.289630447158665 2.7011691213633244 3.7858716898157474 -1 1 0
587 196 2 0.4238 15.49595779994387 4.736046760914261 6.211403345393849 0 0 0
150 50 2 0.4238 19.410351909058477 1.2031575353198054 4.568358891583524 0 1 0
620 207 2 0.4238 15.97655016545866 7.035305180425654 5.491232557148528 1 0 0
619 207 1 -0.8476 16.15033281519958 7.953376337871091 5.134939505781221 1 0 0
116 39 2 0.4238 19.911037752880308 7.2013265645077915 4.929866534215079 0 1 0
595 199 1 -0.8476 16.795989331718555 3.551390970119393 3.6419175731959887 -1 1 0
616 206 1 -0.8476 20.435727329865625 6.3956720224839625 10.308375438211684 0 -1 -1
311 104 2 0.4238 20.316051206021555 8.916844022917909 8.65175348826945 0 0 0
117 39 2 0.4238 21.36405197328025 7.3640734659654274 4.202618635425915 0 1 0
510 170 2 0.4238 14.75029030618696 6.391994531258985 9.214889652581816 0 0 0
185 62 2 0.4238 17.619148769617876 1.430851610926143 6.108385275686322 0 0 -1
37 13 1 -0.8476 17.828265428760734 5.17467546554823 9.566277976653145 0 0 -1
509 170 2 0.4238 15.492713355575559 7.280196257540397 8.063138087406259 0 0 0
516 172 2 0.4238 18.465946899944623 9.008259623638113 2.5827265726532125 0 1 0
1019 340 2 0.4238 18.99164666759149 9.25436647141279 5.291098392164881 -1 0 0
508 170 1 -0.8476 14.87381136708739 7.313973935975701 8.847879610291406 0 0 0
1020 340 2 0.4238 17.82986934702616 8.107147529522564 5.319170054936189 -1 0 0
220 74 1 -0.8476 1.9746857347612694 4.502792637895573 14.084125205125538 1 0 -2
222 74 2 0.4238 1.5655482226030464 3.9739285570698 13.340546393045745 1 0 -2
221 74 2 0.4238 1.5760390701075078 4.216453094540256 14.955383382753558 1 0 -2
578 193 2 0.4238 3.727163467068964 3.597307575492924 14.237980522980607 0 1 0
577 193 1 -0.8476 4.5771228489068445 3.8122486842020304 14.718989513276103 0 1 0
280 94 1 -0.8476 5.292751423945942 2.1887637111351617 18.52421853965933 0 0 0
651 217 2 0.4238 5.645223823477246 6.576692729823159 16.081159908097145 1 0 0
281 94 2 0.4238 5.343651329924401 2.2518793298851434 19.52092590509763 0 0 0
650 217 2 0.4238 5.396564596512757 5.408118963749743 14.967952446260375 1 0 0
282 94 2 0.4238 5.124522966591964 1.2395019074103018 18.258506726533298 0 0 0
703 235 1 -0.8476 5.305899182386914 0.9229679823853008 13.815565746682525 0 0 0
705 235 2 0.4238 4.518369743761655 0.42310851150049816 14.176034362892935 0 0 0
599 200 2 0.4238 4.160477571650671 4.660528099441823 16.43327439895105 1 0 -1
579 193 2 0.4238 5.228958526205812 3.0641942049873183 14.594390830787919 0 1 0
600 200 2 0.4238 4.166199817455744 3.6746209857294563 17.73503451174784 1 0 -1
598 200 1 -0.8476 3.8327450482658474 4.544208190391788 17.370856777084757 1 0 -1
140 47 2 0.4238 0.14257613071086186 5.751921781963012 14.172354411189511 2 1 0
649 217 1 -0.8476 5.894023647489991 6.252077877627707 15.168622778044982 1 0 0
141 47 2 0.4238 0.01624954616907459 6.304006820368438 15.703977944786802 2 1 0
683 228 2 0.4238 6.11063956463386 6.58492812383981 18.956974777427494 1 0 -1
198 66 2 0.4238 4.777615474348605 1.7456393530384136 12.448413762285723 1 1 -2
477 159 2 0.4238 2.3242075702013225 3.7233937131014203 17.196644066842726 1 1 0
965 322 2 0.4238 2.4221988091703106 9.212811486332805 18.24388020368511 2 1 0
795 265 2 0.4238 0.6105527456685299 7.811316122909949 17.782073451286053 0 1 0
475 159 1 -0.8476 1.517483080859448 3.413533954359183 16.69347070330531 1 1 0
476 159 2 0.4238 0.6935878475645043 3.7777339390264593 17.127700940152334 1 1 0
793 265 1 -0.8476 0.3386492425576201 7.412032837430548 16.906492913913645 0 1 0
12 4 2 0.4238 1.7461453429016303 5.6178702525839626 20.59354585102393 0 0 0
964 322 1 -0.8476 1.6258770543595138 8.831760997649477 18.71363832642502 2 1 0
94 32 1 -0.8476 2.0739634232040056 0.7451931788237988 18.932270003977855 0 1 -1
562 188 1 -0.8476 1.6389981169692818 7.659150478758969 13.129098828173406 0 0 1
564 188 2 0.4238 2.1313544936903877 8.508411334610617 13.319732439646437 0 0 1
704 235 2 0.4238 6.135091075764481 0.6239576107476644 14.287829912276214 0 0 0
710 237 2 0.4238 4.113765452489255 4.471663237633978 20.511374739395322 1 2 -1
294 98 2 0.4238 4.311320701841667 9.799972984180217 14.188642612988335 -1 0 -1
695 232 2 0.4238 3.633945492864205 5.269593522453578 12.518682606562791 0 0 0
805 269 1 -0.8476 7.102772768888939 8.442651485755164 13.643044745498267 -1 1 0
196 66 1 -0.8476 4.613686492863411 2.3518319667792698 11.670173553496944 1 1 -2
807 269 2 0.4238 6.711872007163333 7.530811912922117 13.768527656988862 -1 1 0
711 237 2 0.4238 3.930448499108558 5.445564012909166 19.213476920149116 1 2 -1
485 162 2 0.4238 5.417516378809024 8.735235599150442 13.117837994419315 -1 2 0
696 232 2 0.4238 5.082187121633962 5.82615917256564 12.00931272924085 0 0 0
709 237 1 -0.8476 3.6911337744647126 5.313382014046716 20.175379605162316 1 2 -1
486 162 2 0.4238 4.119807741381536 8.072988074177701 12.380269714086912 -1 2 0
484 162 1 -0.8476 4.469432607831274 8.889481000230713 12.839727751544904 -1 2 0
143 48 2 0.4238 0.8917414641395744 2.1469698910146766 15.579447484612325 1 1 0
11 4 2 0.4238 0.4244022507800264 4.83303197709205 21.144590664387323 0 0 0
694 232 1 -0.8476 4.116118203482457 6.0546248144750106 12.129792277449406 0 0 0
682 228 1 -0.8476 6.911665500227745 5.988478970048787 19.00801511707654 1 0 -1
680 227 2 0.4238 4.433340144190665 8.49888119420329 17.568232428728248 -1 -1 -1
679 227 1 -0.8476 4.556173778364466 7.513959057745492 17.690058229026196 -1 -1 -1
875 292 2 0.4238 4.125794282118353 10.339751229320145 11.912770511011018 0 1 1
10 4 1 -0.8476 0.8007631442427973 5.726842449585744 20.900756041968716 0 0 0
966 322 2 0.4238 1.8764985481401746 8.58842454277198 19.65064185863324 2 1 0
305 102 2 0.4238 6.192885908905879 9.0581728908585 21.28360379397485 1 0 -1
18 6 2 0.4238 0.489203861542432 10.676899639972081 18.230862499470987 1 0 -1
681 227 2 0.4238 4.02721980737862 7.0238776954026285 16.997217760508114 -1 -1 -1
684 228 2 0.4238 6.796406704234874 5.339188881684252 19.759771616411637 1 0 -1
983 328 2 0.4238 0.46781664928465133 2.6596396019998854 11.6204022880661 1 1 -1
95 32 2 0.4238 2.622777446416463 1.538467206698782 18.66860523549505 0 1 -1
292 98 1 -0.8476 4.028489997081047 10.43990491034411 14.903131149955929 -1 0 -1
313 105 1 -0.8476 4.031935898515713 10.108208074093639 17.734775992062293 2 -1 -1
315 105 2 0.4238 4.052116408105609 10.2799756158204 16.74984463359082 2 -1 -1
472 158 1 -0.8476 0.6293062962011848 1.0004393901308861 21.53705389580627 1 1 1
142 48 1 -0.8476 0.3336137892645377 1.3893076864341507 15.241156025101098 1 1 0
767 256 2 0.4238 2.9403392486793654 3.095911022544443 11.598905077443197 1 0 1
96 32 2 0.4238 1.6199100017137373 0.9289221002125403 19.80409523634192 0 1 -1
563 188 2 0.4238 2.157615068833458 6.884689116351017 13.491376954418072 0 0 1
169 57 1 -0.8476 6.616890589374194 4.607441752685214 21.189901503792754 -1 1 0
766 256 1 -0.8476 2.006694811404152 3.452494090377479 11.56488521472197 1 0 1
171 57 2 0.4238 6.531205100334035 3.783949132069404 21.750720507642654 -1 1 0
861 287 2 0.4238 6.707170625990717 3.141650144412217 17.693081780075772 1 2 0
576 192 2 0.4238 3.566055820589347 6.674776002270097 21.45302459018039 0 0 0
814 272 1 -0.8476 6.494048467090504 5.0944304473585245 11.238562912945095 0 1 0
258 86 2 0.4238 0.20093973973984175 0.4684368836743587 16.75461276123895 1 1 0
815 272 2 0.4238 6.0529870323705595 4.204092239245161 11.125590914231203 0 1 0
748 250 1 -0.8476 4.1049392344068405 2.624629238522662 21.289716135363317 2 1 0
749 250 2 0.4238 4.549146616910321 1.7373625843195104 21.41396544467744 2 1 0
889 297 1 -0.8476 9.0581069477951 2.5592009300735974 14.842974757914968 -1 0 -1
570 190 2 0.4238 8.13414700397213 1.0566141053256173 13.904510929802138 1 0 1
146 49 2 0.4238 10.905548244388704 1.8116338982973301 20.75193178065914 0 1 -1
331 111 1 -0.8476 11.291333009458985 0.4893891120871963 11.093644485124685 1 1 -1
932 311 2 0.4238 13.606866188861959 8.124137096760709 21.71016372498006 0 1 -1
147 49 2 0.4238 9.761061195195767 2.8777247997560105 21.221212184803537 0 1 -1
568 190 1 -0.8476 8.124657957520249 0.08338744629077054 13.67485944326643 1 0 1
925 309 1 -0.8476 13.059886664368147 0.7337644632439996 21.604983494661727 0 1 0
891 297 2 0.4238 8.606874512799761 2.777689656943107 15.708221404741826 -1 0 -1
860 287 2 0.4238 7.368622464544554 4.634441026930182 17.719217067986673 1 2 0
859 287 1 -0.8476 7.433233781852957 3.7196236838665553 17.32055077058855 1 2 0
806 269 2 0.4238 7.539866978690908 8.737732421660077 14.492677973042857 -1 1 0
399 133 2 0.4238 13.565723788360685 10.861755358005132 11.956596704768758 0 -1 0
890 297 2 0.4238 8.957600931211664 3.3278437852642053 14.211241832800862 -1 0 -1
631 211 1 -0.8476 13.912383268475246 1.6552575352204122 18.97036648931009 0 0 0
561 187 2 0.4238 13.85555040464377 0.6234080257933752 17.218215907177942 1 1 -1
758 253 2 0.4238 8.236110220978617 7.899748278855737 16.078570185596153 0 1 0
265 89 1 -0.8476 9.04586242172147 8.354359628332025 11.652456417517664 0 0 0
309 103 2 0.4238 13.18535207331033 6.899377664545174 12.567836542009344 0 0 1
757 253 1 -0.8476 8.504290395154547 7.041129896057311 15.641700663350859 0 1 0
461 154 2 0.4238 13.631752058140421 1.154858753064514 13.910565187181346 0 -1 -2
732 244 2 0.4238 7.790079992575126 4.519243150077705 12.341738827303116 1 2 0
560 187 2 0.4238 12.97658379286638 0.2827920979576633 15.884790285336694 1 1 -1
74 25 2 0.4238 14.066148948392906 8.34946540890498 13.639923953616213 -1 0 1
731 244 2 0.4238 9.409677433506062 4.4615679817457465 12.141228371909103 1 2 0
391 131 1 -0.8476 11.094713094884128 0.3824649722400528 15.401823198477992 0 -1 -1
389 130 2 0.4238 10.427960184477362 5.112724260594784 20.00093402911887 1 2 -1
417 139 2 0.4238 9.526669137008579 7.097286099124374 17.52833029665754 0 1 0
7 3 1 -0.8476 10.40405685457659 9.251010393835326 19.078502805334466 0 0 0
416 139 2 0.4238 8.416410729141107 6.60584205100565 18.620317232112978 0 1 0
9 3 2 0.4238 9.672040858878491 8.589361129794023 18.916105468580373 0 0 0
415 139 1 -0.8476 9.38773192050351 6.7898169547350316 18.469690567462223 0 1 0
950 317 2 0.4238 8.221799951343408 10.815189170714447 20.88528653519067 0 0 -1
460 154 1 -0.8476 12.761043749162459 1.0778262655401443 13.42483569522409 0 -1 -2
393 131 2 0.4238 10.297451960523183 0.9701868359435184 15.26413333635431 0 -1 -1
213 71 2 0.4238 10.212520408079916 6.471064753345858 15.207131385263766 0 0 0
325 109 1 -0.8476 12.513778217547857 7.075041554517491 17.21594428570838 0 0 -1
783 261 2 0.4238 11.877191163936896 8.876060350262593 19.789506669115113 0 0 0
327 109 2 0.4238 13.426463261030163 6.913733082031397 17.591424962057765 0 0 -1
759 253 2 0.4238 7.688967240988288 6.492609091184766 15.456299474340687 0 1 0
212 71 2 0.4238 11.7243624819623 6.413301219407057 15.821642484913516 0 0 0
8 3 2 0.4238 10.061150024464485 10.175297256287493 18.910845665901892 0 0 0
211 71 1 -0.8476 11.150077726928394 6.165209011499988 15.041483168974242 0 0 0
765 255 2 0.4238 8.889325601467913 9.943599101846624 16.30260061818251 -1 0 0
462 154 2 0.4238 12.039528343858356 0.8298846651433632 14.071318947220586 0 -1 -2
740 247 2 0.4238 12.294359497353847 3.468556536501229 16.856825213132648 -1 1 -1
592 198 1 -0.8476 10.863938706356105 5.603692920745886 12.26293460198214 0 1 1
594 198 2 0.4238 10.867072680071203 6.5444682916533115 11.9239187317848 0 1 1
593 198 2 0.4238 11.122163462080056 5.596663618392706 13.228993746400988 0 1 1
739 247 1 -0.8476 13.215471371568755 3.668307079333825 17.190969693972452 -1 1 -1
326 109 2 0.4238 11.990717069258634 7.648831035367008 17.84616059382015 0 0 -1