LAMMPS (29 Sep 2021 - Update 2)
OMP_NUM_THREADS environment is not set. Defaulting to 1 thread. (src/comm.cpp:98)
  using 1 OpenMP thread(s) per MPI task
Reading data file ...
  orthogonal box = (0.0000000 0.0000000 0.0000000) to (21.775700 21.775700 21.775700)
  1 by 2 by 2 MPI processor grid
  reading atoms ...
  1029 atoms
  reading velocities ...
  1029 velocities
  scanning bonds ...
  2 = max bonds/atom
  scanning angles ...
  1 = max angles/atom
  reading bonds ...
  686 bonds
  reading angles ...
  343 angles
Finding 1-2 1-3 1-4 neighbors ...
  special bond factors lj:    0        0        0       
  special bond factors coul:  0        0        0       
     2 = max # of 1-2 neighbors
     1 = max # of 1-3 neighbors
     1 = max # of 1-4 neighbors
     2 = max # of special neighbors
  special bonds CPU = 0.000 seconds
  read_data CPU = 0.008 seconds
1029 atoms in group spce
Finding SHAKE clusters ...
       0 = # of size 2 clusters
       0 = # of size 3 clusters
       0 = # of size 4 clusters
     343 = # of frozen angles
  find clusters CPU = 0.000 seconds
PPPM initialization ...
  using 12-bit tables for long-range coulomb (src/kspace.cpp:340)
  G vector (1/distance) = 0.26919
  grid = 12 12 12
  stencil order = 5
  estimated absolute RMS force accuracy = 0.024006429
  estimated relative force accuracy = 7.2294647e-05
  using double precision FFTW3
  3d grid and FFT values/proc = 3211 432
Neighbor list info ...
  update every 1 steps, delay 10 steps, check yes
  max neighbors/atom: 2000, page size: 100000
  master list distance cutoff = 12
  ghost atom cutoff = 12
  binsize = 6, bins = 4 4 4
  1 neighbor lists, perpetual/occasional/extra = 1 0 0
  (1) pair lj/charmm/coul/long, perpetual
      attributes: half, newton on
      pair build: half/bin/newton
      stencil: half/bin/3d
      bin: standard
Setting up Verlet run ...
  Unit style    : real
  Current step  : 0
  Time step     : 1
SHAKE stats (type/ave/delta/count) on step 0
     1   1.00000   1.00249e-06     1029
     1   109.470   9.62146e-05      343
Per MPI rank memory allocation (min/avg/max) = 10.03 | 10.12 | 10.41 Mbytes
---------------- Step        0 ----- CPU =      0.0000 (sec) ----------------
TotEng   =     -3153.8549 Temp     =       300.4314 KinEng   =       613.4374 
PotEng   =     -3767.2923 E_bond   =         0.0000 E_angle  =         0.0000 
E_vdwl   =       701.5791 E_coul   =     14159.2826 E_long   =    -18628.1540 
Press    =      -481.6661 c_c1[4]  =         0.0000 
SHAKE stats (type/ave/delta/count) on step 100
     1   1.00000   1.48202e-06     1029
     1   109.470   0.000112102      343
---------------- Step      100 ----- CPU =      0.3499 (sec) ----------------
TotEng   =     -3163.6348 Temp     =       289.1268 KinEng   =       590.3550 
PotEng   =     -3753.9898 E_bond   =         0.0000 E_angle  =         0.0000 
E_vdwl   =       712.3809 E_coul   =     14162.5783 E_long   =    -18628.9489 
Press    =      -230.1887 c_c1[4]  =         0.3472 
SHAKE stats (type/ave/delta/count) on step 200
     1   1.00000   1.22715e-06     1029
     1   109.470   0.000117746      343
---------------- Step      200 ----- CPU =      0.7110 (sec) ----------------
TotEng   =     -3158.7149 Temp     =       291.5830 KinEng   =       595.3701 
PotEng   =     -3754.0850 E_bond   =         0.0000 E_angle  =         0.0000 
E_vdwl   =       719.7901 E_coul   =     14157.9428 E_long   =    -18631.8179 
Press    =        71.4574 c_c1[4]  =         0.6206 
SHAKE stats (type/ave/delta/count) on step 300
     1   1.00000   9.89259e-07     1029
     1   109.470   8.99916e-05      343
---------------- Step      300 ----- CPU =      1.0494 (sec) ----------------
TotEng   =     -3121.6353 Temp     =       298.1300 KinEng   =       608.7382 
PotEng   =     -3730.3735 E_bond   =         0.0000 E_angle  =         0.0000 
E_vdwl   =       777.5820 E_coul   =     14121.3224 E_long   =    -18629.2779 
Press    =      1420.7095 c_c1[4]  =         0.9019 
SHAKE stats (type/ave/delta/count) on step 400
     1   1.00000   1.04906e-06     1029
     1   109.470   7.83140e-05      343
---------------- Step      400 ----- CPU =      1.4373 (sec) ----------------
TotEng   =     -3111.4967 Temp     =       305.2767 KinEng   =       623.3308 
PotEng   =     -3734.8275 E_bond   =         0.0000 E_angle  =         0.0000 
E_vdwl   =       689.9035 E_coul   =     14202.2652 E_long   =    -18626.9962 
Press    =      -409.1945 c_c1[4]  =         1.1939 
SHAKE stats (type/ave/delta/count) on step 500
     1   1.00000   1.38610e-06     1029
     1   109.470   9.56980e-05      343
---------------- Step      500 ----- CPU =      1.8169 (sec) ----------------
TotEng   =     -3097.8850 Temp     =       309.7884 KinEng   =       632.5431 
PotEng   =     -3730.4281 E_bond   =         0.0000 E_angle  =         0.0000 
E_vdwl   =       726.6492 E_coul   =     14172.4092 E_long   =    -18629.4866 
Press    =       518.0732 c_c1[4]  =         1.4257 
SHAKE stats (type/ave/delta/count) on step 600
     1   1.00000   1.23782e-06     1029
     1   109.470   0.000105540      343
---------------- Step      600 ----- CPU =      2.1819 (sec) ----------------
TotEng   =     -3092.1049 Temp     =       304.5105 KinEng   =       621.7664 
PotEng   =     -3713.8712 E_bond   =         0.0000 E_angle  =         0.0000 
E_vdwl   =       714.6112 E_coul   =     14200.9441 E_long   =    -18629.4265 
Press    =       365.1884 c_c1[4]  =         1.5926 
SHAKE stats (type/ave/delta/count) on step 700
     1   1.00000   2.04592e-06     1029
     1   109.470   0.000177445      343
---------------- Step      700 ----- CPU =      2.5390 (sec) ----------------
TotEng   =     -3138.6857 Temp     =       299.9120 KinEng   =       612.3767 
PotEng   =     -3751.0624 E_bond   =         0.0000 E_angle  =         0.0000 
E_vdwl   =       712.9120 E_coul   =     14164.2843 E_long   =    -18628.2587 
Press    =       143.9468 c_c1[4]  =         1.7961 
SHAKE stats (type/ave/delta/count) on step 800
     1   1.00000   1.27271e-06     1029
     1   109.470   9.48812e-05      343
---------------- Step      800 ----- CPU =      2.8820 (sec) ----------------
TotEng   =     -3165.4807 Temp     =       299.1704 KinEng   =       610.8626 
PotEng   =     -3776.3432 E_bond   =         0.0000 E_angle  =         0.0000 
E_vdwl   =       645.1668 E_coul   =     14208.6076 E_long   =    -18630.1176 
Press    =     -1583.1104 c_c1[4]  =         2.0140 
SHAKE stats (type/ave/delta/count) on step 900
     1   1.00000   1.33703e-06     1029
     1   109.470   9.24086e-05      343
---------------- Step      900 ----- CPU =      3.2346 (sec) ----------------
TotEng   =     -3168.6398 Temp     =       302.7989 KinEng   =       618.2715 
PotEng   =     -3786.9113 E_bond   =         0.0000 E_angle  =         0.0000 
E_vdwl   =       733.0078 E_coul   =     14108.2593 E_long   =    -18628.1784 
Press    =       220.8188 c_c1[4]  =         2.2269 
SHAKE stats (type/ave/delta/count) on step 1000
     1   1.00000   1.30119e-06     1029
     1   109.470   0.000122255      343
---------------- Step     1000 ----- CPU =      3.5807 (sec) ----------------
TotEng   =     -3185.3993 Temp     =       298.2880 KinEng   =       609.0607 
PotEng   =     -3794.4600 E_bond   =         0.0000 E_angle  =         0.0000 
E_vdwl   =       716.3751 E_coul   =     14121.7193 E_long   =    -18632.5545 
Press    =      -270.7010 c_c1[4]  =         2.5309 
SHAKE stats (type/ave/delta/count) on step 1100
     1   1.00000   1.66275e-06     1029
     1   109.470   0.000118727      343
---------------- Step     1100 ----- CPU =      3.9088 (sec) ----------------
TotEng   =     -3185.9055 Temp     =       288.3483 KinEng   =       588.7654 
PotEng   =     -3774.6709 E_bond   =         0.0000 E_angle  =         0.0000 
E_vdwl   =       698.4443 E_coul   =     14157.4396 E_long   =    -18630.5548 
Press    =      -556.1074 c_c1[4]  =         2.7646 
SHAKE stats (type/ave/delta/count) on step 1200
     1   1.00000   1.25070e-06     1029
     1   109.470   0.000104676      343
---------------- Step     1200 ----- CPU =      4.2732 (sec) ----------------
TotEng   =     -3135.9422 Temp     =       296.5656 KinEng   =       605.5439 
PotEng   =     -3741.4861 E_bond   =         0.0000 E_angle  =         0.0000 
E_vdwl   =       765.1979 E_coul   =     14122.1071 E_long   =    -18628.7911 
Press    =      1184.4729 c_c1[4]  =         3.0324 
SHAKE stats (type/ave/delta/count) on step 1300
     1   1.00000   1.60898e-06     1029
     1   109.470   0.000113724      343
---------------- Step     1300 ----- CPU =      4.6338 (sec) ----------------
TotEng   =     -3135.2989 Temp     =       300.0581 KinEng   =       612.6752 
PotEng   =     -3747.9741 E_bond   =         0.0000 E_angle  =         0.0000 
E_vdwl   =       748.8572 E_coul   =     14133.1180 E_long   =    -18629.9493 
Press    =       770.0560 c_c1[4]  =         3.3732 
SHAKE stats (type/ave/delta/count) on step 1400
     1   1.00000   1.47843e-06     1029
     1   109.470   0.000100941      343
---------------- Step     1400 ----- CPU =      4.9798 (sec) ----------------
TotEng   =     -3158.4532 Temp     =       300.8816 KinEng   =       614.3565 
PotEng   =     -3772.8097 E_bond   =         0.0000 E_angle  =         0.0000 
E_vdwl   =       726.1359 E_coul   =     14130.6630 E_long   =    -18629.6086 
Press    =       -25.8109 c_c1[4]  =         3.6695 
SHAKE stats (type/ave/delta/count) on step 1500
     1   1.00000   1.48051e-06     1029
     1   109.470   0.000136859      343
---------------- Step     1500 ----- CPU =      5.3053 (sec) ----------------
TotEng   =     -3176.5793 Temp     =       296.3128 KinEng   =       605.0277 
PotEng   =     -3781.6070 E_bond   =         0.0000 E_angle  =         0.0000 
E_vdwl   =       775.2337 E_coul   =     14069.8531 E_long   =    -18626.6938 
Press    =       975.7997 c_c1[4]  =         3.9122 
SHAKE stats (type/ave/delta/count) on step 1600
     1   1.00000   2.40197e-06     1029
     1   109.470   0.000155452      343
---------------- Step     1600 ----- CPU =      5.6651 (sec) ----------------
TotEng   =     -3233.5160 Temp     =       295.2752 KinEng   =       602.9092 
PotEng   =     -3836.4252 E_bond   =         0.0000 E_angle  =         0.0000 
E_vdwl   =       779.3244 E_coul   =     14014.5232 E_long   =    -18630.2728 
Press    =       660.8959 c_c1[4]  =         4.0011 
SHAKE stats (type/ave/delta/count) on step 1700
     1   1.00000   1.00530e-06     1029
     1   109.470   8.56446e-05      343
---------------- Step     1700 ----- CPU =      6.0404 (sec) ----------------
TotEng   =     -3254.0103 Temp     =       281.3744 KinEng   =       574.5258 
PotEng   =     -3828.5361 E_bond   =         0.0000 E_angle  =         0.0000 
E_vdwl   =       805.6774 E_coul   =     13995.2829 E_long   =    -18629.4964 
Press    =      1198.1003 c_c1[4]  =         4.1688 
SHAKE stats (type/ave/delta/count) on step 1800
     1   1.00000   1.52584e-06     1029
     1   109.470   0.000141484      343
---------------- Step     1800 ----- CPU =      6.4095 (sec) ----------------
TotEng   =     -3227.5043 Temp     =       298.2541 KinEng   =       608.9916 
PotEng   =     -3836.4960 E_bond   =         0.0000 E_angle  =         0.0000 
E_vdwl   =       737.9085 E_coul   =     14056.9078 E_long   =    -18631.3122 
Press    =      -176.2204 c_c1[4]  =         4.3241 
SHAKE stats (type/ave/delta/count) on step 1900
     1   1.00000   1.09652e-06     1029
     1   109.470   9.76597e-05      343
---------------- Step     1900 ----- CPU =      6.7457 (sec) ----------------
TotEng   =     -3196.8746 Temp     =       291.7322 KinEng   =       595.6749 
PotEng   =     -3792.5495 E_bond   =         0.0000 E_angle  =         0.0000 
E_vdwl   =       790.3232 E_coul   =     14046.4520 E_long   =    -18629.3247 
Press    =      1434.3505 c_c1[4]  =         4.5063 
SHAKE stats (type/ave/delta/count) on step 2000
     1   1.00000   1.08888e-06     1029
     1   109.470   8.53697e-05      343
---------------- Step     2000 ----- CPU =      7.0717 (sec) ----------------
TotEng   =     -3185.6904 Temp     =       296.1040 KinEng   =       604.6014 
PotEng   =     -3790.2918 E_bond   =         0.0000 E_angle  =         0.0000 
E_vdwl   =       759.7539 E_coul   =     14079.9899 E_long   =    -18630.0357 
Press    =       705.7003 c_c1[4]  =         4.7436 
SHAKE stats (type/ave/delta/count) on step 2100
     1   1.00000   1.23387e-06     1029
     1   109.470   0.000104906      343
---------------- Step     2100 ----- CPU =      7.4299 (sec) ----------------
TotEng   =     -3171.9476 Temp     =       296.0210 KinEng   =       604.4320 
PotEng   =     -3776.3795 E_bond   =         0.0000 E_angle  =         0.0000 
E_vdwl   =       687.6316 E_coul   =     14163.6984 E_long   =    -18627.7096 
Press    =      -666.2732 c_c1[4]  =         4.9728 
SHAKE stats (type/ave/delta/count) on step 2200
     1   1.00000   1.74663e-06     1029
     1   109.470   0.000187104      343
---------------- Step     2200 ----- CPU =      7.8136 (sec) ----------------
TotEng   =     -3125.4133 Temp     =       311.8148 KinEng   =       636.6805 
PotEng   =     -3762.0938 E_bond   =         0.0000 E_angle  =         0.0000 
E_vdwl   =       761.0117 E_coul   =     14107.8154 E_long   =    -18630.9209 
Press    =       902.6556 c_c1[4]  =         5.2020 
SHAKE stats (type/ave/delta/count) on step 2300
     1   1.00000   1.65057e-06     1029
     1   109.470   0.000121813      343
---------------- Step     2300 ----- CPU =      8.1589 (sec) ----------------
TotEng   =     -3115.6188 Temp     =       316.7944 KinEng   =       646.8483 
PotEng   =     -3762.4671 E_bond   =         0.0000 E_angle  =         0.0000 
E_vdwl   =       817.6499 E_coul   =     14048.4775 E_long   =    -18628.5945 
Press    =      2057.5057 c_c1[4]  =         5.5080 
SHAKE stats (type/ave/delta/count) on step 2400
     1   1.00000   1.58273e-06     1029
     1   109.470   0.000145733      343
---------------- Step     2400 ----- CPU =      8.5089 (sec) ----------------
TotEng   =     -3154.1127 Temp     =       305.3869 KinEng   =       623.5556 
PotEng   =     -3777.6684 E_bond   =         0.0000 E_angle  =         0.0000 
E_vdwl   =       725.8988 E_coul   =     14124.5183 E_long   =    -18628.0854 
Press    =        77.7179 c_c1[4]  =         5.7799 
SHAKE stats (type/ave/delta/count) on step 2500
     1   1.00000   1.20252e-06     1029
     1   109.470   8.95228e-05      343
---------------- Step     2500 ----- CPU =      8.8783 (sec) ----------------
TotEng   =     -3168.1058 Temp     =       299.5636 KinEng   =       611.6654 
PotEng   =     -3779.7711 E_bond   =         0.0000 E_angle  =         0.0000 
E_vdwl   =       724.6103 E_coul   =     14124.6103 E_long   =    -18628.9917 
Press    =       -44.1989 c_c1[4]  =         5.9660 
SHAKE stats (type/ave/delta/count) on step 2600
     1   1.00000   1.15344e-06     1029
     1   109.470   0.000100445      343
---------------- Step     2600 ----- CPU =      9.2531 (sec) ----------------
TotEng   =     -3165.8822 Temp     =       293.4874 KinEng   =       599.2587 
PotEng   =     -3765.1408 E_bond   =         0.0000 E_angle  =         0.0000 
E_vdwl   =       720.2352 E_coul   =     14142.9050 E_long   =    -18628.2811 
Press    =       -95.0710 c_c1[4]  =         6.0666 
SHAKE stats (type/ave/delta/count) on step 2700
     1   1.00000   1.48102e-06     1029
     1   109.470   9.81767e-05      343
---------------- Step     2700 ----- CPU =      9.6019 (sec) ----------------
TotEng   =     -3148.2194 Temp     =       308.3573 KinEng   =       629.6209 
PotEng   =     -3777.8403 E_bond   =         0.0000 E_angle  =         0.0000 
E_vdwl   =       718.2828 E_coul   =     14134.9019 E_long   =    -18631.0250 
Press    =         4.6734 c_c1[4]  =         6.2162 
SHAKE stats (type/ave/delta/count) on step 2800
     1   1.00000   1.16532e-06     1029
     1   109.470   8.72846e-05      343
---------------- Step     2800 ----- CPU =      9.9855 (sec) ----------------
TotEng   =     -3132.6014 Temp     =       324.6675 KinEng   =       662.9239 
PotEng   =     -3795.5253 E_bond   =         0.0000 E_angle  =         0.0000 
E_vdwl   =       731.4092 E_coul   =     14102.0879 E_long   =    -18629.0224 
Press    =        92.9155 c_c1[4]  =         6.3503 
SHAKE stats (type/ave/delta/count) on step 2900
     1   1.00000   1.91873e-06     1029
     1   109.470   0.000170012      343
---------------- Step     2900 ----- CPU =     10.3681 (sec) ----------------
TotEng   =     -3173.0891 Temp     =       291.7169 KinEng   =       595.6436 
PotEng   =     -3768.7326 E_bond   =         0.0000 E_angle  =         0.0000 
E_vdwl   =       742.5011 E_coul   =     14118.0765 E_long   =    -18629.3103 
Press    =       340.9915 c_c1[4]  =         6.5935 
SHAKE stats (type/ave/delta/count) on step 3000
     1   1.00000   1.11694e-06     1029
     1   109.470   9.91507e-05      343
---------------- Step     3000 ----- CPU =     10.7234 (sec) ----------------
TotEng   =     -3196.2042 Temp     =       301.5706 KinEng   =       615.7633 
PotEng   =     -3811.9676 E_bond   =         0.0000 E_angle  =         0.0000 
E_vdwl   =       758.9904 E_coul   =     14060.9240 E_long   =    -18631.8819 
Press    =       322.1543 c_c1[4]  =         6.7318 
SHAKE stats (type/ave/delta/count) on step 3100
     1   1.00000   9.73747e-07     1029
     1   109.470   9.17440e-05      343
---------------- Step     3100 ----- CPU =     11.1119 (sec) ----------------
TotEng   =     -3202.2171 Temp     =       300.2152 KinEng   =       612.9959 
PotEng   =     -3815.2131 E_bond   =         0.0000 E_angle  =         0.0000 
E_vdwl   =       717.8075 E_coul   =     14098.5088 E_long   =    -18631.5294 
Press    =      -410.2723 c_c1[4]  =         6.9627 
SHAKE stats (type/ave/delta/count) on step 3200
     1   1.00000   1.36257e-06     1029
     1   109.470   0.000151588      343
---------------- Step     3200 ----- CPU =     11.4580 (sec) ----------------
TotEng   =     -3180.0353 Temp     =       311.9375 KinEng   =       636.9310 
PotEng   =     -3816.9663 E_bond   =         0.0000 E_angle  =         0.0000 
E_vdwl   =       747.5520 E_coul   =     14064.5778 E_long   =    -18629.0961 
Press    =       187.5978 c_c1[4]  =         7.0999 
SHAKE stats (type/ave/delta/count) on step 3300
     1   1.00000   9.58107e-07     1029
     1   109.470   0.000100941      343
---------------- Step     3300 ----- CPU =     11.8202 (sec) ----------------
TotEng   =     -3150.2711 Temp     =       302.5506 KinEng   =       617.7644 
PotEng   =     -3768.0355 E_bond   =         0.0000 E_angle  =         0.0000 
E_vdwl   =       733.4297 E_coul   =     14127.3046 E_long   =    -18628.7697 
Press    =       217.4963 c_c1[4]  =         7.2668 
SHAKE stats (type/ave/delta/count) on step 3400
     1   1.00000   1.02513e-06     1029
     1   109.470   0.000101693      343
---------------- Step     3400 ----- CPU =     12.1557 (sec) ----------------
TotEng   =     -3125.4553 Temp     =       299.6675 KinEng   =       611.8776 
PotEng   =     -3737.3330 E_bond   =         0.0000 E_angle  =         0.0000 
E_vdwl   =       766.3614 E_coul   =     14126.3325 E_long   =    -18630.0269 
Press    =      1323.9771 c_c1[4]  =         7.4226 
SHAKE stats (type/ave/delta/count) on step 3500
     1   1.00000   1.35233e-06     1029
     1   109.470   9.98142e-05      343
---------------- Step     3500 ----- CPU =     12.5218 (sec) ----------------
TotEng   =     -3121.9612 Temp     =       302.9803 KinEng   =       618.6418 
PotEng   =     -3740.6030 E_bond   =         0.0000 E_angle  =         0.0000 
E_vdwl   =       706.3433 E_coul   =     14183.7638 E_long   =    -18630.7101 
Press    =       -12.4493 c_c1[4]  =         7.7671 
SHAKE stats (type/ave/delta/count) on step 3600
     1   1.00000   2.25125e-06     1029
     1   109.470   0.000149778      343
---------------- Step     3600 ----- CPU =     12.8704 (sec) ----------------
TotEng   =     -3165.4854 Temp     =       289.7860 KinEng   =       591.7009 
PotEng   =     -3757.1863 E_bond   =         0.0000 E_angle  =         0.0000 
E_vdwl   =       687.8574 E_coul   =     14186.5414 E_long   =    -18631.5852 
Press    =      -841.8437 c_c1[4]  =         8.1091 
SHAKE stats (type/ave/delta/count) on step 3700
     1   1.00000   1.53627e-06     1029
     1   109.470   9.17152e-05      343
---------------- Step     3700 ----- CPU =     13.2461 (sec) ----------------
TotEng   =     -3184.9492 Temp     =       289.0038 KinEng   =       590.1038 
PotEng   =     -3775.0530 E_bond   =         0.0000 E_angle  =         0.0000 
E_vdwl   =       717.7128 E_coul   =     14135.9219 E_long   =    -18628.6877 
Press    =      -339.2009 c_c1[4]  =         8.3424 
SHAKE stats (type/ave/delta/count) on step 3800
     1   1.00000   9.77153e-07     1029
     1   109.470   0.000100179      343
---------------- Step     3800 ----- CPU =     13.6227 (sec) ----------------
TotEng   =     -3181.9267 Temp     =       305.6100 KinEng   =       624.0114 
PotEng   =     -3805.9381 E_bond   =         0.0000 E_angle  =         0.0000 
E_vdwl   =       739.9563 E_coul   =     14083.6593 E_long   =    -18629.5537 
Press    =      -126.0745 c_c1[4]  =         8.5292 
SHAKE stats (type/ave/delta/count) on step 3900
     1   1.00000   1.63639e-06     1029
     1   109.470   0.000165561      343
---------------- Step     3900 ----- CPU =     13.9803 (sec) ----------------
TotEng   =     -3138.4860 Temp     =       301.2870 KinEng   =       615.1843 
PotEng   =     -3753.6704 E_bond   =         0.0000 E_angle  =         0.0000 
E_vdwl   =       710.3526 E_coul   =     14165.2702 E_long   =    -18629.2932 
Press    =      -240.7795 c_c1[4]  =         8.8297 
SHAKE stats (type/ave/delta/count) on step 4000
     1   1.00000   1.66651e-06     1029
     1   109.470   0.000101919      343
---------------- Step     4000 ----- CPU =     14.3368 (sec) ----------------
TotEng   =     -3114.2712 Temp     =       311.7500 KinEng   =       636.5483 
PotEng   =     -3750.8195 E_bond   =         0.0000 E_angle  =         0.0000 
E_vdwl   =       748.7478 E_coul   =     14129.9466 E_long   =    -18629.5139 
Press    =       722.1230 c_c1[4]  =         8.9536 
SHAKE stats (type/ave/delta/count) on step 4100
     1   1.00000   1.41773e-06     1029
     1   109.470   0.000128361      343
---------------- Step     4100 ----- CPU =     14.6907 (sec) ----------------
TotEng   =     -3139.3808 Temp     =       299.6343 KinEng   =       611.8098 
PotEng   =     -3751.1906 E_bond   =         0.0000 E_angle  =         0.0000 
E_vdwl   =       711.4324 E_coul   =     14167.5468 E_long   =    -18630.1699 
Press    =       -24.0109 c_c1[4]  =         9.0464 
SHAKE stats (type/ave/delta/count) on step 4200
     1   1.00000   1.35498e-06     1029
     1   109.470   0.000104344      343
---------------- Step     4200 ----- CPU =     15.0357 (sec) ----------------
TotEng   =     -3156.3993 Temp     =       299.3776 KinEng   =       611.2855 
PotEng   =     -3767.6849 E_bond   =         0.0000 E_angle  =         0.0000 
E_vdwl   =       744.1733 E_coul   =     14120.2721 E_long   =    -18632.1302 
Press    =       334.5114 c_c1[4]  =         9.2359 
SHAKE stats (type/ave/delta/count) on step 4300
     1   1.00000   9.45104e-07     1029
     1   109.470   8.27666e-05      343
---------------- Step     4300 ----- CPU =     15.3712 (sec) ----------------
TotEng   =     -3169.9338 Temp     =       288.5268 KinEng   =       589.1298 
PotEng   =     -3759.0637 E_bond   =         0.0000 E_angle  =         0.0000 
E_vdwl   =       715.0217 E_coul   =     14155.3997 E_long   =    -18629.4851 
Press    =      -347.2192 c_c1[4]  =         9.4124 
SHAKE stats (type/ave/delta/count) on step 4400
     1   1.00000   1.05601e-06     1029
     1   109.470   8.82225e-05      343
---------------- Step     4400 ----- CPU =     15.7355 (sec) ----------------
TotEng   =     -3165.4591 Temp     =       313.5316 KinEng   =       640.1860 
PotEng   =     -3805.6450 E_bond   =         0.0000 E_angle  =         0.0000 
E_vdwl   =       721.2829 E_coul   =     14103.3860 E_long   =    -18630.3140 
Press    =      -396.8057 c_c1[4]  =         9.4966 
SHAKE stats (type/ave/delta/count) on step 4500
     1   1.00000   1.95703e-06     1029
     1   109.470   0.000187504      343
---------------- Step     4500 ----- CPU =     16.0715 (sec) ----------------
TotEng   =     -3202.0682 Temp     =       304.3279 KinEng   =       621.3933 
PotEng   =     -3823.4615 E_bond   =         0.0000 E_angle  =         0.0000 
E_vdwl   =       749.8783 E_coul   =     14056.3711 E_long   =    -18629.7109 
Press    =       219.3739 c_c1[4]  =         9.7903 
SHAKE stats (type/ave/delta/count) on step 4600
     1   1.00000   1.21901e-06     1029
     1   109.470   9.21909e-05      343
---------------- Step     4600 ----- CPU =     16.4178 (sec) ----------------
TotEng   =     -3234.5867 Temp     =       292.8986 KinEng   =       598.0564 
PotEng   =     -3832.6431 E_bond   =         0.0000 E_angle  =         0.0000 
E_vdwl   =       718.2160 E_coul   =     14078.9129 E_long   =    -18629.7721 
Press    =      -542.1553 c_c1[4]  =        10.1229 
SHAKE stats (type/ave/delta/count) on step 4700
     1   1.00000   1.43302e-06     1029
     1   109.470   0.000115328      343
---------------- Step     4700 ----- CPU =     16.7888 (sec) ----------------
TotEng   =     -3224.9460 Temp     =       293.9811 KinEng   =       600.2668 
PotEng   =     -3825.2128 E_bond   =         0.0000 E_angle  =         0.0000 
E_vdwl   =       732.4877 E_coul   =     14073.3995 E_long   =    -18631.1000 
Press    =      -316.2606 c_c1[4]  =        10.5141 
SHAKE stats (type/ave/delta/count) on step 4800
     1   1.00000   1.08335e-06     1029
     1   109.470   9.64796e-05      343
---------------- Step     4800 ----- CPU =     17.1399 (sec) ----------------
TotEng   =     -3182.9689 Temp     =       303.9907 KinEng   =       620.7049 
PotEng   =     -3803.6738 E_bond   =         0.0000 E_angle  =         0.0000 
E_vdwl   =       801.0144 E_coul   =     14026.0109 E_long   =    -18630.6991 
Press    =      1416.7328 c_c1[4]  =        10.7871 
SHAKE stats (type/ave/delta/count) on step 4900
     1   1.00000   1.19062e-06     1029
     1   109.470   9.88103e-05      343
---------------- Step     4900 ----- CPU =     17.5151 (sec) ----------------
TotEng   =     -3172.0665 Temp     =       292.0215 KinEng   =       596.2656 
PotEng   =     -3768.3321 E_bond   =         0.0000 E_angle  =         0.0000 
E_vdwl   =       690.3533 E_coul   =     14172.1130 E_long   =    -18630.7985 
Press    =      -739.9391 c_c1[4]  =        10.8681 
SHAKE stats (type/ave/delta/count) on step 5000
     1   1.00000   1.59824e-06     1029
     1   109.470   9.07424e-05      343
---------------- Step     5000 ----- CPU =     17.8770 (sec) ----------------
TotEng   =     -3144.4913 Temp     =       301.7075 KinEng   =       616.0429 
PotEng   =     -3760.5341 E_bond   =         0.0000 E_angle  =         0.0000 
E_vdwl   =       751.8575 E_coul   =     14117.0255 E_long   =    -18629.4171 
Press    =       707.0290 c_c1[4]  =        11.1294 
SHAKE stats (type/ave/delta/count) on step 5100
     1   1.00000   1.20067e-06     1029
     1   109.470   9.12206e-05      343
---------------- Step     5100 ----- CPU =     18.1940 (sec) ----------------
TotEng   =     -3129.9552 Temp     =       294.3537 KinEng   =       601.0276 
PotEng   =     -3730.9828 E_bond   =         0.0000 E_angle  =         0.0000 
E_vdwl   =       731.0376 E_coul   =     14164.8420 E_long   =    -18626.8623 
Press    =       471.6920 c_c1[4]  =        11.3166 
SHAKE stats (type/ave/delta/count) on step 5200
     1   1.00000   1.32452e-06     1029
     1   109.470   0.000100869      343
---------------- Step     5200 ----- CPU =     18.5309 (sec) ----------------
TotEng   =     -3127.9085 Temp     =       314.4348 KinEng   =       642.0303 
PotEng   =     -3769.9387 E_bond   =         0.0000 E_angle  =         0.0000 
E_vdwl   =       707.7533 E_coul   =     14150.8656 E_long   =    -18628.5576 
Press    =      -289.9006 c_c1[4]  =        11.3322 
SHAKE stats (type/ave/delta/count) on step 5300
     1   1.00000   1.78443e-06     1029
     1   109.470   0.000167206      343
---------------- Step     5300 ----- CPU =     18.8785 (sec) ----------------
TotEng   =     -3195.4944 Temp     =       295.0880 KinEng   =       602.5269 
PotEng   =     -3798.0213 E_bond   =         0.0000 E_angle  =         0.0000 
E_vdwl   =       714.6057 E_coul   =     14118.3284 E_long   =    -18630.9554 
Press    =      -438.2562 c_c1[4]  =        11.3302 
SHAKE stats (type/ave/delta/count) on step 5400
     1   1.00000   1.12731e-06     1029
     1   109.470   8.45029e-05      343
---------------- Step     5400 ----- CPU =     19.2216 (sec) ----------------
TotEng   =     -3202.9369 Temp     =       298.1625 KinEng   =       608.8046 
PotEng   =     -3811.7414 E_bond   =         0.0000 E_angle  =         0.0000 
E_vdwl   =       719.2604 E_coul   =     14098.7676 E_long   =    -18629.7695 
Press    =      -450.8912 c_c1[4]  =        11.3771 
SHAKE stats (type/ave/delta/count) on step 5500
     1   1.00000   1.06545e-06     1029
     1   109.470   8.83869e-05      343
---------------- Step     5500 ----- CPU =     19.5558 (sec) ----------------
TotEng   =     -3202.1004 Temp     =       307.8038 KinEng   =       628.4907 
PotEng   =     -3830.5911 E_bond   =         0.0000 E_angle  =         0.0000 
E_vdwl   =       754.2155 E_coul   =     14044.8882 E_long   =    -18629.6948 
Press    =        15.6504 c_c1[4]  =        11.5775 
SHAKE stats (type/ave/delta/count) on step 5600
     1   1.00000   9.20252e-07     1029
     1   109.470   8.07498e-05      343
---------------- Step     5600 ----- CPU =     19.9222 (sec) ----------------
TotEng   =     -3206.1656 Temp     =       300.1230 KinEng   =       612.8076 
PotEng   =     -3818.9732 E_bond   =         0.0000 E_angle  =         0.0000 
E_vdwl   =       766.6128 E_coul   =     14044.9328 E_long   =    -18630.5188 
Press    =       299.9035 c_c1[4]  =        11.9715 
SHAKE stats (type/ave/delta/count) on step 5700
     1   1.00000   1.73106e-06     1029
     1   109.470   0.000149836      343
---------------- Step     5700 ----- CPU =     20.2933 (sec) ----------------
TotEng   =     -3199.1411 Temp     =       298.1986 KinEng   =       608.8783 
PotEng   =     -3808.0194 E_bond   =         0.0000 E_angle  =         0.0000 
E_vdwl   =       694.5852 E_coul   =     14128.9371 E_long   =    -18631.5417 
Press    =     -1173.2600 c_c1[4]  =        12.2969 
SHAKE stats (type/ave/delta/count) on step 5800
     1   1.00000   1.61477e-06     1029
     1   109.470   0.000147179      343
---------------- Step     5800 ----- CPU =     20.6377 (sec) ----------------
TotEng   =     -3157.0878 Temp     =       311.2107 KinEng   =       635.4471 
PotEng   =     -3792.5349 E_bond   =         0.0000 E_angle  =         0.0000 
E_vdwl   =       692.5563 E_coul   =     14144.5888 E_long   =    -18629.6800 
Press    =      -709.6059 c_c1[4]  =        12.3678 
SHAKE stats (type/ave/delta/count) on step 5900
     1   1.00000   1.13845e-06     1029
     1   109.470   8.97737e-05      343
---------------- Step     5900 ----- CPU =     21.0019 (sec) ----------------
TotEng   =     -3138.4746 Temp     =       305.2177 KinEng   =       623.2102 
PotEng   =     -3761.6848 E_bond   =         0.0000 E_angle  =         0.0000 
E_vdwl   =       678.3680 E_coul   =     14187.6801 E_long   =    -18627.7329 
Press    =      -785.2732 c_c1[4]  =        12.4744 
SHAKE stats (type/ave/delta/count) on step 6000
     1   1.00000   1.59755e-06     1029
     1   109.470   0.000115120      343
---------------- Step     6000 ----- CPU =     21.3383 (sec) ----------------
TotEng   =     -3146.7171 Temp     =       314.6146 KinEng   =       642.3974 
PotEng   =     -3789.1144 E_bond   =         0.0000 E_angle  =         0.0000 
E_vdwl   =       713.1057 E_coul   =     14127.9254 E_long   =    -18630.1456 
Press    =      -354.6692 c_c1[4]  =        12.8913 
SHAKE stats (type/ave/delta/count) on step 6100
     1   1.00000   1.54324e-06     1029
     1   109.470   0.000122252      343
---------------- Step     6100 ----- CPU =     21.7732 (sec) ----------------
TotEng   =     -3185.8175 Temp     =       277.4993 KinEng   =       566.6132 
PotEng   =     -3752.4307 E_bond   =         0.0000 E_angle  =         0.0000 
E_vdwl   =       730.1261 E_coul   =     14146.4343 E_long   =    -18628.9911 
Press    =       370.9101 c_c1[4]  =        13.2903 
SHAKE stats (type/ave/delta/count) on step 6200
     1   1.00000   1.16809e-06     1029
     1   109.470   0.000134437      343
---------------- Step     6200 ----- CPU =     22.2522 (sec) ----------------
TotEng   =     -3185.9735 Temp     =       290.4130 KinEng   =       592.9812 
PotEng   =     -3778.9546 E_bond   =         0.0000 E_angle  =         0.0000 
E_vdwl   =       736.9600 E_coul   =     14115.7477 E_long   =    -18631.6623 
Press    =       287.0361 c_c1[4]  =        13.5346 
SHAKE stats (type/ave/delta/count) on step 6300
     1   1.00000   1.11333e-06     1029
     1   109.470   0.000100802      343
---------------- Step     6300 ----- CPU =     22.6653 (sec) ----------------
TotEng   =     -3123.0364 Temp     =       319.5087 KinEng   =       652.3905 
PotEng   =     -3775.4269 E_bond   =         0.0000 E_angle  =         0.0000 
E_vdwl   =       754.2014 E_coul   =     14099.7838 E_long   =    -18629.4120 
Press    =       744.2269 c_c1[4]  =        13.7540 
SHAKE stats (type/ave/delta/count) on step 6400
     1   1.00000   1.81034e-06     1029
     1   109.470   0.000167547      343
---------------- Step     6400 ----- CPU =     23.0309 (sec) ----------------
TotEng   =     -3139.6164 Temp     =       297.1104 KinEng   =       606.6563 
PotEng   =     -3746.2727 E_bond   =         0.0000 E_angle  =         0.0000 
E_vdwl   =       753.1372 E_coul   =     14128.7044 E_long   =    -18628.1143 
Press    =       829.1280 c_c1[4]  =        14.0339 
SHAKE stats (type/ave/delta/count) on step 6500
     1   1.00000   1.27580e-06     1029
     1   109.470   0.000110651      343
---------------- Step     6500 ----- CPU =     23.3896 (sec) ----------------
TotEng   =     -3173.0280 Temp     =       289.7026 KinEng   =       591.5306 
PotEng   =     -3764.5586 E_bond   =         0.0000 E_angle  =         0.0000 
E_vdwl   =       685.2295 E_coul   =     14178.3448 E_long   =    -18628.1329 
Press    =      -848.3405 c_c1[4]  =        14.2992 
SHAKE stats (type/ave/delta/count) on step 6600
     1   1.00000   1.02189e-06     1029
     1   109.470   8.51891e-05      343
---------------- Step     6600 ----- CPU =     23.7372 (sec) ----------------
TotEng   =     -3177.2777 Temp     =       294.6459 KinEng   =       601.6241 
PotEng   =     -3778.9017 E_bond   =         0.0000 E_angle  =         0.0000 
E_vdwl   =       707.6560 E_coul   =     14143.5559 E_long   =    -18630.1136 
Press    =      -548.3215 c_c1[4]  =        14.5523 
SHAKE stats (type/ave/delta/count) on step 6700
     1   1.00000   9.37767e-07     1029
     1   109.470   7.70559e-05      343
---------------- Step     6700 ----- CPU =     24.0834 (sec) ----------------
TotEng   =     -3168.8435 Temp     =       305.4295 KinEng   =       623.6427 
PotEng   =     -3792.4862 E_bond   =         0.0000 E_angle  =         0.0000 
E_vdwl   =       766.0745 E_coul   =     14073.0850 E_long   =    -18631.6457 
Press    =       629.5669 c_c1[4]  =        14.8342 
SHAKE stats (type/ave/delta/count) on step 6800
     1   1.00000   2.02638e-06     1029
     1   109.470   0.000151483      343
---------------- Step     6800 ----- CPU =     24.4324 (sec) ----------------
TotEng   =     -3190.5559 Temp     =       296.9313 KinEng   =       606.2907 
PotEng   =     -3796.8467 E_bond   =         0.0000 E_angle  =         0.0000 
E_vdwl   =       738.3516 E_coul   =     14093.3869 E_long   =    -18628.5851 
Press    =         2.3838 c_c1[4]  =        14.9315 
SHAKE stats (type/ave/delta/count) on step 6900
     1   1.00000   1.32562e-06     1029
     1   109.470   9.38175e-05      343
---------------- Step     6900 ----- CPU =     24.7976 (sec) ----------------
TotEng   =     -3220.5295 Temp     =       298.2447 KinEng   =       608.9723 
PotEng   =     -3829.5018 E_bond   =         0.0000 E_angle  =         0.0000 
E_vdwl   =       706.0891 E_coul   =     14094.7077 E_long   =    -18630.2987 
Press    =      -803.7711 c_c1[4]  =        15.0430 
SHAKE stats (type/ave/delta/count) on step 7000
     1   1.00000   1.07518e-06     1029
     1   109.470   0.000135490      343
---------------- Step     7000 ----- CPU =     25.1560 (sec) ----------------
TotEng   =     -3209.3142 Temp     =       288.0398 KinEng   =       588.1355 
PotEng   =     -3797.4496 E_bond   =         0.0000 E_angle  =         0.0000 
E_vdwl   =       741.4853 E_coul   =     14090.1433 E_long   =    -18629.0783 
Press    =       183.8273 c_c1[4]  =        15.3676 
SHAKE stats (type/ave/delta/count) on step 7100
     1   1.00000   1.42169e-06     1029
     1   109.470   0.000112014      343
---------------- Step     7100 ----- CPU =     25.4936 (sec) ----------------
TotEng   =     -3161.3830 Temp     =       316.1091 KinEng   =       645.4488 
PotEng   =     -3806.8319 E_bond   =         0.0000 E_angle  =         0.0000 
E_vdwl   =       688.1103 E_coul   =     14133.9149 E_long   =    -18628.8570 
Press    =      -875.8237 c_c1[4]  =        15.7206 
SHAKE stats (type/ave/delta/count) on step 7200
     1   1.00000   1.29165e-06     1029
     1   109.470   8.94863e-05      343
---------------- Step     7200 ----- CPU =     25.8196 (sec) ----------------
TotEng   =     -3154.7419 Temp     =       304.3766 KinEng   =       621.4929 
PotEng   =     -3776.2348 E_bond   =         0.0000 E_angle  =         0.0000 
E_vdwl   =       719.5821 E_coul   =     14133.6946 E_long   =    -18629.5115 
Press    =      -143.1376 c_c1[4]  =        16.1301 
SHAKE stats (type/ave/delta/count) on step 7300
     1   1.00000   1.99294e-06     1029
     1   109.470   0.000147336      343
---------------- Step     7300 ----- CPU =     26.1755 (sec) ----------------
TotEng   =     -3162.1816 Temp     =       316.3386 KinEng   =       645.9175 
PotEng   =     -3808.0991 E_bond   =         0.0000 E_angle  =         0.0000 
E_vdwl   =       715.0213 E_coul   =     14106.1608 E_long   =    -18629.2811 
Press    =      -518.3920 c_c1[4]  =        16.4103 
SHAKE stats (type/ave/delta/count) on step 7400
     1   1.00000   1.82751e-06     1029
     1   109.470   0.000143987      343
---------------- Step     7400 ----- CPU =     26.5373 (sec) ----------------
TotEng   =     -3203.1074 Temp     =       292.9610 KinEng   =       598.1838 
PotEng   =     -3801.2912 E_bond   =         0.0000 E_angle  =         0.0000 
E_vdwl   =       670.3523 E_coul   =     14159.9647 E_long   =    -18631.6082 
Press    =     -1417.6558 c_c1[4]  =        16.7941 
SHAKE stats (type/ave/delta/count) on step 7500
     1   1.00000   1.09431e-06     1029
     1   109.470   0.000104299      343
---------------- Step     7500 ----- CPU =     26.8997 (sec) ----------------
TotEng   =     -3208.2693 Temp     =       292.9905 KinEng   =       598.2441 
PotEng   =     -3806.5134 E_bond   =         0.0000 E_angle  =         0.0000 
E_vdwl   =       716.1825 E_coul   =     14110.1309 E_long   =    -18632.8269 
Press    =      -487.1234 c_c1[4]  =        17.0128 
SHAKE stats (type/ave/delta/count) on step 7600
     1   1.00000   1.15502e-06     1029
     1   109.470   9.63447e-05      343
---------------- Step     7600 ----- CPU =     27.2626 (sec) ----------------
TotEng   =     -3188.4854 Temp     =       283.4311 KinEng   =       578.7252 
PotEng   =     -3767.2106 E_bond   =         0.0000 E_angle  =         0.0000 
E_vdwl   =       742.7975 E_coul   =     14119.3030 E_long   =    -18629.3112 
Press    =       468.4054 c_c1[4]  =        17.1736 
SHAKE stats (type/ave/delta/count) on step 7700
     1   1.00000   1.04924e-06     1029
     1   109.470   0.000118575      343
---------------- Step     7700 ----- CPU =     27.5481 (sec) ----------------
TotEng   =     -3164.1811 Temp     =       314.3655 KinEng   =       641.8887 
PotEng   =     -3806.0698 E_bond   =         0.0000 E_angle  =         0.0000 
E_vdwl   =       691.8045 E_coul   =     14132.4520 E_long   =    -18630.3262 
Press    =      -875.5516 c_c1[4]  =        17.5857 
SHAKE stats (type/ave/delta/count) on step 7800
     1   1.00000   9.60646e-07     1029
     1   109.470   9.11638e-05      343
---------------- Step     7800 ----- CPU =     27.8838 (sec) ----------------
TotEng   =     -3157.7721 Temp     =       304.6877 KinEng   =       622.1281 
PotEng   =     -3779.9002 E_bond   =         0.0000 E_angle  =         0.0000 
E_vdwl   =       664.9893 E_coul   =     14186.5326 E_long   =    -18631.4221 
Press    =     -1304.9324 c_c1[4]  =        17.6723 
SHAKE stats (type/ave/delta/count) on step 7900
     1   1.00000   1.09515e-06     1029
     1   109.470   8.91033e-05      343
---------------- Step     7900 ----- CPU =     28.2387 (sec) ----------------
TotEng   =     -3152.2190 Temp     =       316.5609 KinEng   =       646.3715 
PotEng   =     -3798.5905 E_bond   =         0.0000 E_angle  =         0.0000 
E_vdwl   =       683.7317 E_coul   =     14150.8062 E_long   =    -18633.1283 
Press    =      -833.8060 c_c1[4]  =        17.8812 
SHAKE stats (type/ave/delta/count) on step 8000
     1   1.00000   1.00148e-06     1029
     1   109.470   9.06564e-05      343
---------------- Step     8000 ----- CPU =     28.5722 (sec) ----------------
TotEng   =     -3138.8128 Temp     =       308.0764 KinEng   =       629.0473 
PotEng   =     -3767.8600 E_bond   =         0.0000 E_angle  =         0.0000 
E_vdwl   =       727.9448 E_coul   =     14135.0724 E_long   =    -18630.8772 
Press    =       227.5873 c_c1[4]  =        18.1833 
SHAKE stats (type/ave/delta/count) on step 8100
     1   1.00000   1.24532e-06     1029
     1   109.470   9.04664e-05      343
---------------- Step     8100 ----- CPU =     28.9097 (sec) ----------------
TotEng   =     -3127.6553 Temp     =       304.9881 KinEng   =       622.7414 
PotEng   =     -3750.3967 E_bond   =         0.0000 E_angle  =         0.0000 
E_vdwl   =       700.0957 E_coul   =     14176.9980 E_long   =    -18627.4903 
Press    =      -209.7185 c_c1[4]  =        18.4143 
SHAKE stats (type/ave/delta/count) on step 8200
     1   1.00000   1.39304e-06     1029
     1   109.470   0.000110837      343
---------------- Step     8200 ----- CPU =     29.2587 (sec) ----------------
TotEng   =     -3129.8543 Temp     =       317.0178 KinEng   =       647.3044 
PotEng   =     -3777.1587 E_bond   =         0.0000 E_angle  =         0.0000 
E_vdwl   =       683.6426 E_coul   =     14167.8378 E_long   =    -18628.6392 
Press    =      -781.7826 c_c1[4]  =        18.6501 
SHAKE stats (type/ave/delta/count) on step 8300
     1   1.00000   1.46710e-06     1029
     1   109.470   0.000138982      343
---------------- Step     8300 ----- CPU =     29.6287 (sec) ----------------
TotEng   =     -3166.2295 Temp     =       295.4116 KinEng   =       603.1876 
PotEng   =     -3769.4171 E_bond   =         0.0000 E_angle  =         0.0000 
E_vdwl   =       707.9481 E_coul   =     14151.3937 E_long   =    -18628.7589 
Press    =      -183.0572 c_c1[4]  =        18.7644 
SHAKE stats (type/ave/delta/count) on step 8400
     1   1.00000   1.31821e-06     1029
     1   109.470   9.80032e-05      343
---------------- Step     8400 ----- CPU =     29.9543 (sec) ----------------
TotEng   =     -3194.5531 Temp     =       296.6969 KinEng   =       605.8120 
PotEng   =     -3800.3651 E_bond   =         0.0000 E_angle  =         0.0000 
E_vdwl   =       739.4605 E_coul   =     14086.9063 E_long   =    -18626.7319 
Press    =       162.3331 c_c1[4]  =        18.8328 
SHAKE stats (type/ave/delta/count) on step 8500
     1   1.00000   1.25091e-06     1029
     1   109.470   0.000108224      343
---------------- Step     8500 ----- CPU =     30.3265 (sec) ----------------
TotEng   =     -3208.4025 Temp     =       308.4427 KinEng   =       629.7953 
PotEng   =     -3838.1978 E_bond   =         0.0000 E_angle  =         0.0000 
E_vdwl   =       733.9941 E_coul   =     14056.6354 E_long   =    -18628.8272 
Press    =      -219.4587 c_c1[4]  =        19.0209 
SHAKE stats (type/ave/delta/count) on step 8600
     1   1.00000   1.52370e-06     1029
     1   109.470   9.58154e-05      343
---------------- Step     8600 ----- CPU =     30.7060 (sec) ----------------
TotEng   =     -3229.7637 Temp     =       291.7100 KinEng   =       595.6295 
PotEng   =     -3825.3932 E_bond   =         0.0000 E_angle  =         0.0000 
E_vdwl   =       767.6600 E_coul   =     14036.6061 E_long   =    -18629.6593 
Press    =       563.2309 c_c1[4]  =        19.1446 
SHAKE stats (type/ave/delta/count) on step 8700
     1   1.00000   1.17063e-06     1029
     1   109.470   8.74450e-05      343
---------------- Step     8700 ----- CPU =     31.0448 (sec) ----------------
TotEng   =     -3228.7553 Temp     =       297.2304 KinEng   =       606.9014 
PotEng   =     -3835.6568 E_bond   =         0.0000 E_angle  =         0.0000 
E_vdwl   =       772.0336 E_coul   =     14020.6124 E_long   =    -18628.3027 
Press    =       610.0624 c_c1[4]  =        19.3083 
SHAKE stats (type/ave/delta/count) on step 8800
     1   1.00000   1.11537e-06     1029
     1   109.470   9.52631e-05      343
---------------- Step     8800 ----- CPU =     31.3714 (sec) ----------------
TotEng   =     -3223.1566 Temp     =       289.4299 KinEng   =       590.9738 
PotEng   =     -3814.1304 E_bond   =         0.0000 E_angle  =         0.0000 
E_vdwl   =       689.3660 E_coul   =     14124.2373 E_long   =    -18627.7337 
Press    =      -999.0560 c_c1[4]  =        19.6687 
SHAKE stats (type/ave/delta/count) on step 8900
     1   1.00000   1.28669e-06     1029
     1   109.470   0.000124501      343
---------------- Step     8900 ----- CPU =     31.7258 (sec) ----------------
TotEng   =     -3193.3457 Temp     =       294.7195 KinEng   =       601.7744 
PotEng   =     -3795.1201 E_bond   =         0.0000 E_angle  =         0.0000 
E_vdwl   =       747.9709 E_coul   =     14089.1809 E_long   =    -18632.2719 
Press    =       411.1060 c_c1[4]  =        20.1656 
SHAKE stats (type/ave/delta/count) on step 9000
     1   1.00000   1.15393e-06     1029
     1   109.470   0.000102167      343
---------------- Step     9000 ----- CPU =     32.0927 (sec) ----------------
TotEng   =     -3173.9628 Temp     =       305.7155 KinEng   =       624.2266 
PotEng   =     -3798.1894 E_bond   =         0.0000 E_angle  =         0.0000 
E_vdwl   =       702.0241 E_coul   =     14130.0135 E_long   =    -18630.2271 
Press    =      -570.1901 c_c1[4]  =        20.1483 
SHAKE stats (type/ave/delta/count) on step 9100
     1   1.00000   1.22076e-06     1029
     1   109.470   9.82409e-05      343
---------------- Step     9100 ----- CPU =     32.4445 (sec) ----------------
TotEng   =     -3158.6710 Temp     =       304.4293 KinEng   =       621.6005 
PotEng   =     -3780.2715 E_bond   =         0.0000 E_angle  =         0.0000 
E_vdwl   =       721.9087 E_coul   =     14127.9393 E_long   =    -18630.1196 
Press    =      -228.7637 c_c1[4]  =        20.1366 
SHAKE stats (type/ave/delta/count) on step 9200
     1   1.00000   1.77945e-06     1029
     1   109.470   0.000183645      343
---------------- Step     9200 ----- CPU =     32.7969 (sec) ----------------
TotEng   =     -3115.5868 Temp     =       321.6503 KinEng   =       656.7631 
PotEng   =     -3772.3500 E_bond   =         0.0000 E_angle  =         0.0000 
E_vdwl   =       750.5152 E_coul   =     14105.4791 E_long   =    -18628.3442 
Press    =       478.4221 c_c1[4]  =        20.0196 
SHAKE stats (type/ave/delta/count) on step 9300
     1   1.00000   1.80581e-06     1029
     1   109.470   0.000143350      343
---------------- Step     9300 ----- CPU =     33.1604 (sec) ----------------
TotEng   =     -3110.0717 Temp     =       307.3447 KinEng   =       627.5533 
PotEng   =     -3737.6250 E_bond   =         0.0000 E_angle  =         0.0000 
E_vdwl   =       745.8630 E_coul   =     14146.8008 E_long   =    -18630.2888 
Press    =       837.3833 c_c1[4]  =        20.1698 
SHAKE stats (type/ave/delta/count) on step 9400
     1   1.00000   1.69699e-06     1029
     1   109.470   0.000131772      343
---------------- Step     9400 ----- CPU =     33.5120 (sec) ----------------
TotEng   =     -3158.4826 Temp     =       284.1821 KinEng   =       580.2586 
PotEng   =     -3738.7412 E_bond   =         0.0000 E_angle  =         0.0000 
E_vdwl   =       761.8403 E_coul   =     14127.7371 E_long   =    -18628.3186 
Press    =      1021.3037 c_c1[4]  =        20.3210 
SHAKE stats (type/ave/delta/count) on step 9500
     1   1.00000   1.10462e-06     1029
     1   109.470   9.28571e-05      343
---------------- Step     9500 ----- CPU =     33.8789 (sec) ----------------
TotEng   =     -3171.4953 Temp     =       297.9693 KinEng   =       608.4100 
PotEng   =     -3779.9054 E_bond   =         0.0000 E_angle  =         0.0000 
E_vdwl   =       759.1205 E_coul   =     14088.5012 E_long   =    -18627.5271 
Press    =       600.1644 c_c1[4]  =        20.4762 
SHAKE stats (type/ave/delta/count) on step 9600
     1   1.00000   1.63473e-06     1029
     1   109.470   0.000107937      343
---------------- Step     9600 ----- CPU =     34.2500 (sec) ----------------
TotEng   =     -3183.5690 Temp     =       307.5420 KinEng   =       627.9561 
PotEng   =     -3811.5251 E_bond   =         0.0000 E_angle  =         0.0000 
E_vdwl   =       818.6026 E_coul   =     13999.3875 E_long   =    -18629.5152 
Press    =      1585.2019 c_c1[4]  =        20.6422 
SHAKE stats (type/ave/delta/count) on step 9700
     1   1.00000   1.84225e-06     1029
     1   109.470   0.000145537      343
---------------- Step     9700 ----- CPU =     34.6229 (sec) ----------------
TotEng   =     -3220.2732 Temp     =       301.0924 KinEng   =       614.7870 
PotEng   =     -3835.0601 E_bond   =         0.0000 E_angle  =         0.0000 
E_vdwl   =       770.8970 E_coul   =     14025.2951 E_long   =    -18631.2522 
Press    =       495.6669 c_c1[4]  =        20.8363 
SHAKE stats (type/ave/delta/count) on step 9800
     1   1.00000   9.65886e-07     1029
     1   109.470   8.63941e-05      343
---------------- Step     9800 ----- CPU =     35.0034 (sec) ----------------
TotEng   =     -3241.0453 Temp     =       301.3334 KinEng   =       615.2790 
PotEng   =     -3856.3243 E_bond   =         0.0000 E_angle  =         0.0000 
E_vdwl   =       788.3747 E_coul   =     13986.3892 E_long   =    -18631.0882 
Press    =       757.9064 c_c1[4]  =        20.8664 
SHAKE stats (type/ave/delta/count) on step 9900
     1   1.00000   1.05793e-06     1029
     1   109.470   8.14631e-05      343
---------------- Step     9900 ----- CPU =     35.3634 (sec) ----------------
TotEng   =     -3241.9340 Temp     =       284.8868 KinEng   =       581.6976 
PotEng   =     -3823.6316 E_bond   =         0.0000 E_angle  =         0.0000 
E_vdwl   =       783.6691 E_coul   =     14022.0901 E_long   =    -18629.3908 
Press    =       713.5735 c_c1[4]  =        21.0013 
SHAKE stats (type/ave/delta/count) on step 10000
     1   1.00000   1.25584e-06     1029
     1   109.470   0.000112149      343
---------------- Step    10000 ----- CPU =     35.7294 (sec) ----------------
TotEng   =     -3216.0799 Temp     =       289.3211 KinEng   =       590.7517 
PotEng   =     -3806.8316 E_bond   =         0.0000 E_angle  =         0.0000 
E_vdwl   =       783.7942 E_coul   =     14038.8313 E_long   =    -18629.4572 
Press    =      1054.8471 c_c1[4]  =        21.0086 
SHAKE stats (type/ave/delta/count) on step 10100
     1   1.00000   1.06162e-06     1029
     1   109.470   8.30600e-05      343
---------------- Step    10100 ----- CPU =     36.1025 (sec) ----------------
TotEng   =     -3181.3891 Temp     =       304.7858 KinEng   =       622.3284 
PotEng   =     -3803.7175 E_bond   =         0.0000 E_angle  =         0.0000 
E_vdwl   =       770.0008 E_coul   =     14054.7658 E_long   =    -18628.4840 
Press    =       774.6272 c_c1[4]  =        21.1958 
SHAKE stats (type/ave/delta/count) on step 10200
     1   1.00000   1.18342e-06     1029
     1   109.470   9.48975e-05      343
---------------- Step    10200 ----- CPU =     36.4510 (sec) ----------------
TotEng   =     -3177.4886 Temp     =       299.5085 KinEng   =       611.5530 
PotEng   =     -3789.0415 E_bond   =         0.0000 E_angle  =         0.0000 
E_vdwl   =       783.1479 E_coul   =     14053.2804 E_long   =    -18625.4699 
Press    =      1034.2210 c_c1[4]  =        21.3814 
SHAKE stats (type/ave/delta/count) on step 10300
     1   1.00000   1.78226e-06     1029
     1   109.470   0.000184997      343
---------------- Step    10300 ----- CPU =     36.7917 (sec) ----------------
TotEng   =     -3140.0953 Temp     =       321.7478 KinEng   =       656.9622 
PotEng   =     -3797.0575 E_bond   =         0.0000 E_angle  =         0.0000 
E_vdwl   =       763.5588 E_coul   =     14071.2642 E_long   =    -18631.8805 
Press    =       744.4793 c_c1[4]  =        21.3875 
SHAKE stats (type/ave/delta/count) on step 10400
     1   1.00000   1.31533e-06     1029
     1   109.470   0.000117313      343
---------------- Step    10400 ----- CPU =     37.1271 (sec) ----------------
TotEng   =     -3124.0064 Temp     =       309.0622 KinEng   =       631.0601 
PotEng   =     -3755.0665 E_bond   =         0.0000 E_angle  =         0.0000 
E_vdwl   =       712.3944 E_coul   =     14162.0008 E_long   =    -18629.4617 
Press    =       176.9674 c_c1[4]  =        21.7446 
SHAKE stats (type/ave/delta/count) on step 10500
     1   1.00000   2.16220e-06     1029
     1   109.470   0.000182732      343
---------------- Step    10500 ----- CPU =     37.4612 (sec) ----------------
TotEng   =     -3167.2197 Temp     =       310.3997 KinEng   =       633.7911 
PotEng   =     -3801.0108 E_bond   =         0.0000 E_angle  =         0.0000 
E_vdwl   =       749.9663 E_coul   =     14077.7578 E_long   =    -18628.7349 
Press    =       413.9971 c_c1[4]  =        21.9429 
SHAKE stats (type/ave/delta/count) on step 10600
     1   1.00000   1.77717e-06     1029
     1   109.470   0.000123018      343
---------------- Step    10600 ----- CPU =     37.8424 (sec) ----------------
TotEng   =     -3201.6967 Temp     =       305.4589 KinEng   =       623.7028 
PotEng   =     -3825.3995 E_bond   =         0.0000 E_angle  =         0.0000 
E_vdwl   =       741.4111 E_coul   =     14062.9168 E_long   =    -18629.7274 
Press    =      -198.5438 c_c1[4]  =        22.0673 
SHAKE stats (type/ave/delta/count) on step 10700
     1   1.00000   1.10280e-06     1029
     1   109.470   9.22730e-05      343
---------------- Step    10700 ----- CPU =     38.2276 (sec) ----------------
TotEng   =     -3209.7091 Temp     =       298.9848 KinEng   =       610.4835 
PotEng   =     -3820.1926 E_bond   =         0.0000 E_angle  =         0.0000 
E_vdwl   =       778.3637 E_coul   =     14029.4558 E_long   =    -18628.0121 
Press    =       769.0527 c_c1[4]  =        22.2299 
SHAKE stats (type/ave/delta/count) on step 10800
     1   1.00000   1.63904e-06     1029
     1   109.470   0.000109346      343
---------------- Step    10800 ----- CPU =     38.5952 (sec) ----------------
TotEng   =     -3225.1243 Temp     =       289.9932 KinEng   =       592.1240 
PotEng   =     -3817.2482 E_bond   =         0.0000 E_angle  =         0.0000 
E_vdwl   =       797.8159 E_coul   =     14013.5495 E_long   =    -18628.6136 
Press    =      1224.5632 c_c1[4]  =        22.5402 
SHAKE stats (type/ave/delta/count) on step 10900
     1   1.00000   2.00211e-06     1029
     1   109.470   0.000133996      343
---------------- Step    10900 ----- CPU =     38.9681 (sec) ----------------
TotEng   =     -3252.7100 Temp     =       291.2522 KinEng   =       594.6947 
PotEng   =     -3847.4047 E_bond   =         0.0000 E_angle  =         0.0000 
E_vdwl   =       787.5593 E_coul   =     13994.3052 E_long   =    -18629.2692 
Press    =       576.1467 c_c1[4]  =        22.6524 
SHAKE stats (type/ave/delta/count) on step 11000
     1   1.00000   1.02702e-06     1029
     1   109.470   7.73707e-05      343
---------------- Step    11000 ----- CPU =     39.3217 (sec) ----------------
TotEng   =     -3276.2084 Temp     =       272.8411 KinEng   =       557.1020 
PotEng   =     -3833.3104 E_bond   =         0.0000 E_angle  =         0.0000 
E_vdwl   =       719.3099 E_coul   =     14078.9670 E_long   =    -18631.5872 
Press    =      -677.9932 c_c1[4]  =        22.8150 
SHAKE stats (type/ave/delta/count) on step 11100
     1   1.00000   1.71039e-06     1029
     1   109.470   0.000134138      343
---------------- Step    11100 ----- CPU =     39.6842 (sec) ----------------
TotEng   =     -3226.1412 Temp     =       292.5842 KinEng   =       597.4144 
PotEng   =     -3823.5555 E_bond   =         0.0000 E_angle  =         0.0000 
E_vdwl   =       697.6425 E_coul   =     14106.6768 E_long   =    -18627.8747 
Press    =      -869.6196 c_c1[4]  =        22.9140 
SHAKE stats (type/ave/delta/count) on step 11200
     1   1.00000   1.11599e-06     1029
     1   109.470   8.36355e-05      343
---------------- Step    11200 ----- CPU =     40.0448 (sec) ----------------
TotEng   =     -3208.1066 Temp     =       311.2789 KinEng   =       635.5863 
PotEng   =     -3843.6928 E_bond   =         0.0000 E_angle  =         0.0000 
E_vdwl   =       711.7316 E_coul   =     14075.0150 E_long   =    -18630.4393 
Press    =      -752.3426 c_c1[4]  =        23.0587 
SHAKE stats (type/ave/delta/count) on step 11300
     1   1.00000   1.09442e-06     1029
     1   109.470   9.40143e-05      343
---------------- Step    11300 ----- CPU =     40.3711 (sec) ----------------
TotEng   =     -3205.3110 Temp     =       305.9905 KinEng   =       624.7882 
PotEng   =     -3830.0992 E_bond   =         0.0000 E_angle  =         0.0000 
E_vdwl   =       701.3760 E_coul   =     14099.6247 E_long   =    -18631.0999 
Press    =      -769.6930 c_c1[4]  =        23.1332 
SHAKE stats (type/ave/delta/count) on step 11400
     1   1.00000   1.19112e-06     1029
     1   109.470   8.85546e-05      343
---------------- Step    11400 ----- CPU =     40.7372 (sec) ----------------
TotEng   =     -3194.9062 Temp     =       316.6174 KinEng   =       646.4867 
PotEng   =     -3841.3929 E_bond   =         0.0000 E_angle  =         0.0000 
E_vdwl   =       695.6526 E_coul   =     14091.8262 E_long   =    -18628.8717 
Press    =     -1039.2468 c_c1[4]  =        22.9256 
SHAKE stats (type/ave/delta/count) on step 11500
     1   1.00000   1.82087e-06     1029
     1   109.470   0.000131286      343
---------------- Step    11500 ----- CPU =     41.0725 (sec) ----------------
TotEng   =     -3211.0454 Temp     =       296.3364 KinEng   =       605.0760 
PotEng   =     -3816.1214 E_bond   =         0.0000 E_angle  =         0.0000 
E_vdwl   =       772.0534 E_coul   =     14041.5674 E_long   =    -18629.7422 
Press    =       562.7758 c_c1[4]  =        23.0168 
SHAKE stats (type/ave/delta/count) on step 11600
     1   1.00000   1.28578e-06     1029
     1   109.470   9.00143e-05      343
---------------- Step    11600 ----- CPU =     41.4273 (sec) ----------------
TotEng   =     -3244.4178 Temp     =       297.9264 KinEng   =       608.3226 
PotEng   =     -3852.7404 E_bond   =         0.0000 E_angle  =         0.0000 
E_vdwl   =       720.0353 E_coul   =     14057.4713 E_long   =    -18630.2470 
Press    =      -814.8461 c_c1[4]  =        23.1952 
SHAKE stats (type/ave/delta/count) on step 11700
     1   1.00000   1.19069e-06     1029
     1   109.470   0.000105560      343
---------------- Step    11700 ----- CPU =     41.7810 (sec) ----------------
TotEng   =     -3244.2756 Temp     =       287.9982 KinEng   =       588.0506 
PotEng   =     -3832.3262 E_bond   =         0.0000 E_angle  =         0.0000 
E_vdwl   =       708.2354 E_coul   =     14089.1311 E_long   =    -18629.6928 
Press    =      -906.9565 c_c1[4]  =        23.7517 
SHAKE stats (type/ave/delta/count) on step 11800
     1   1.00000   1.28713e-06     1029
     1   109.470   0.000140763      343
---------------- Step    11800 ----- CPU =     42.1200 (sec) ----------------
TotEng   =     -3188.7657 Temp     =       291.6265 KinEng   =       595.4589 
PotEng   =     -3784.2247 E_bond   =         0.0000 E_angle  =         0.0000 
E_vdwl   =       752.2569 E_coul   =     14091.7642 E_long   =    -18628.2458 
Press    =       543.4411 c_c1[4]  =        24.0935 
SHAKE stats (type/ave/delta/count) on step 11900
     1   1.00000   1.12561e-06     1029
     1   109.470   8.75613e-05      343
---------------- Step    11900 ----- CPU =     42.4489 (sec) ----------------
TotEng   =     -3174.7334 Temp     =       293.4274 KinEng   =       599.1362 
PotEng   =     -3773.8696 E_bond   =         0.0000 E_angle  =         0.0000 
E_vdwl   =       706.2335 E_coul   =     14148.1463 E_long   =    -18628.2494 
Press    =      -316.0629 c_c1[4]  =        24.3519 
SHAKE stats (type/ave/delta/count) on step 12000
     1   1.00000   9.19106e-07     1029
     1   109.470   9.15971e-05      343
---------------- Step    12000 ----- CPU =     42.8009 (sec) ----------------
TotEng   =     -3167.4187 Temp     =       298.4884 KinEng   =       609.4700 
PotEng   =     -3776.8888 E_bond   =         0.0000 E_angle  =         0.0000 
E_vdwl   =       717.1455 E_coul   =     14134.6605 E_long   =    -18628.6947 
Press    =      -179.2157 c_c1[4]  =        24.5160 
SHAKE stats (type/ave/delta/count) on step 12100
     1   1.00000   9.71938e-07     1029
     1   109.470   9.29973e-05      343
---------------- Step    12100 ----- CPU =     43.1387 (sec) ----------------
TotEng   =     -3175.5254 Temp     =       289.4635 KinEng   =       591.0424 
PotEng   =     -3766.5677 E_bond   =         0.0000 E_angle  =         0.0000 
E_vdwl   =       725.6542 E_coul   =     14138.2463 E_long   =    -18630.4683 
Press    =        49.4465 c_c1[4]  =        24.6849 
SHAKE stats (type/ave/delta/count) on step 12200
     1   1.00000   1.00417e-06     1029
     1   109.470   9.33951e-05      343
---------------- Step    12200 ----- CPU =     43.4976 (sec) ----------------
TotEng   =     -3172.1278 Temp     =       304.9597 KinEng   =       622.6835 
PotEng   =     -3794.8113 E_bond   =         0.0000 E_angle  =         0.0000 
E_vdwl   =       754.9737 E_coul   =     14080.9988 E_long   =    -18630.7838 
Press    =       492.5229 c_c1[4]  =        24.9477 
SHAKE stats (type/ave/delta/count) on step 12300
     1   1.00000   1.97848e-06     1029
     1   109.470   0.000128886      343
---------------- Step    12300 ----- CPU =     43.8449 (sec) ----------------
TotEng   =     -3186.3828 Temp     =       311.0047 KinEng   =       635.0265 
PotEng   =     -3821.4093 E_bond   =         0.0000 E_angle  =         0.0000 
E_vdwl   =       740.5682 E_coul   =     14068.3466 E_long   =    -18630.3241 
Press    =       -27.9086 c_c1[4]  =        25.1931 
SHAKE stats (type/ave/delta/count) on step 12400
     1   1.00000   1.97987e-06     1029
     1   109.470   0.000153848      343
---------------- Step    12400 ----- CPU =     44.2321 (sec) ----------------
TotEng   =     -3227.3883 Temp     =       314.1873 KinEng   =       641.5248 
PotEng   =     -3868.9132 E_bond   =         0.0000 E_angle  =         0.0000 
E_vdwl   =       735.3963 E_coul   =     14025.2253 E_long   =    -18629.5348 
Press    =      -563.6083 c_c1[4]  =        25.3128 
SHAKE stats (type/ave/delta/count) on step 12500
     1   1.00000   9.03532e-07     1029
     1   109.470   7.99517e-05      343
---------------- Step    12500 ----- CPU =     44.5816 (sec) ----------------
TotEng   =     -3244.3740 Temp     =       290.7844 KinEng   =       593.7395 
PotEng   =     -3838.1135 E_bond   =         0.0000 E_angle  =         0.0000 
E_vdwl   =       718.2269 E_coul   =     14071.3955 E_long   =    -18627.7359 
Press    =      -720.8296 c_c1[4]  =        25.4036 
SHAKE stats (type/ave/delta/count) on step 12600
     1   1.00000   1.43406e-06     1029
     1   109.470   0.000103952      343
---------------- Step    12600 ----- CPU =     44.9180 (sec) ----------------
TotEng   =     -3224.3730 Temp     =       295.1813 KinEng   =       602.7175 
PotEng   =     -3827.0904 E_bond   =         0.0000 E_angle  =         0.0000 
E_vdwl   =       748.9209 E_coul   =     14053.5251 E_long   =    -18629.5365 
Press    =        42.3173 c_c1[4]  =        25.6654 
SHAKE stats (type/ave/delta/count) on step 12700
     1   1.00000   1.42751e-06     1029
     1   109.470   8.56044e-05      343
---------------- Step    12700 ----- CPU =     45.2881 (sec) ----------------
TotEng   =     -3192.4152 Temp     =       300.4591 KinEng   =       613.4939 
PotEng   =     -3805.9091 E_bond   =         0.0000 E_angle  =         0.0000 
E_vdwl   =       733.2732 E_coul   =     14089.2291 E_long   =    -18628.4114 
Press    =       -38.3058 c_c1[4]  =        25.7514 
SHAKE stats (type/ave/delta/count) on step 12800
     1   1.00000   1.02782e-06     1029
     1   109.470   8.26768e-05      343
---------------- Step    12800 ----- CPU =     45.6375 (sec) ----------------
TotEng   =     -3187.6597 Temp     =       298.5945 KinEng   =       609.6866 
PotEng   =     -3797.3463 E_bond   =         0.0000 E_angle  =         0.0000 
E_vdwl   =       723.1796 E_coul   =     14108.6150 E_long   =    -18629.1408 
Press    =      -267.5071 c_c1[4]  =        25.7916 
SHAKE stats (type/ave/delta/count) on step 12900
     1   1.00000   9.19953e-07     1029
     1   109.470   8.53463e-05      343
---------------- Step    12900 ----- CPU =     45.9838 (sec) ----------------
TotEng   =     -3184.3494 Temp     =       307.0726 KinEng   =       626.9978 
PotEng   =     -3811.3472 E_bond   =         0.0000 E_angle  =         0.0000 
E_vdwl   =       754.4482 E_coul   =     14065.6876 E_long   =    -18631.4829 
Press    =       384.9635 c_c1[4]  =        25.8021 
SHAKE stats (type/ave/delta/count) on step 13000
     1   1.00000   1.40443e-06     1029
     1   109.470   0.000111728      343
---------------- Step    13000 ----- CPU =     46.3648 (sec) ----------------
TotEng   =     -3192.0769 Temp     =       303.0797 KinEng   =       618.8448 
PotEng   =     -3810.9216 E_bond   =         0.0000 E_angle  =         0.0000 
E_vdwl   =       742.7313 E_coul   =     14075.1921 E_long   =    -18628.8450 
Press    =        31.2811 c_c1[4]  =        25.8696 
SHAKE stats (type/ave/delta/count) on step 13100
     1   1.00000   2.01821e-06     1029
     1   109.470   0.000188990      343
---------------- Step    13100 ----- CPU =     46.6712 (sec) ----------------
TotEng   =     -3228.2909 Temp     =       285.9210 KinEng   =       583.8092 
PotEng   =     -3812.1001 E_bond   =         0.0000 E_angle  =         0.0000 
E_vdwl   =       747.8060 E_coul   =     14070.4211 E_long   =    -18630.3271 
Press    =        36.7445 c_c1[4]  =        26.0656 
SHAKE stats (type/ave/delta/count) on step 13200
     1   1.00000   1.08193e-06     1029
     1   109.470   8.61057e-05      343
---------------- Step    13200 ----- CPU =     47.0305 (sec) ----------------
TotEng   =     -3253.2045 Temp     =       282.6712 KinEng   =       577.1736 
PotEng   =     -3830.3781 E_bond   =         0.0000 E_angle  =         0.0000 
E_vdwl   =       757.6705 E_coul   =     14043.1301 E_long   =    -18631.1787 
Press    =        28.9385 c_c1[4]  =        26.3084 
SHAKE stats (type/ave/delta/count) on step 13300
     1   1.00000   1.38115e-06     1029
     1   109.470   0.000123891      343
---------------- Step    13300 ----- CPU =     47.4449 (sec) ----------------
TotEng   =     -3230.1081 Temp     =       306.1560 KinEng   =       625.1261 
PotEng   =     -3855.2342 E_bond   =         0.0000 E_angle  =         0.0000 
E_vdwl   =       770.6161 E_coul   =     14007.4434 E_long   =    -18633.2937 
Press    =       211.2615 c_c1[4]  =        26.4639 
SHAKE stats (type/ave/delta/count) on step 13400
     1   1.00000   1.21811e-06     1029
     1   109.470   0.000105796      343
---------------- Step    13400 ----- CPU =     47.7921 (sec) ----------------
TotEng   =     -3192.5122 Temp     =       300.3109 KinEng   =       613.1913 
PotEng   =     -3805.7035 E_bond   =         0.0000 E_angle  =         0.0000 
E_vdwl   =       766.4116 E_coul   =     14057.6445 E_long   =    -18629.7596 
Press    =       579.1980 c_c1[4]  =        26.4819 
SHAKE stats (type/ave/delta/count) on step 13500
     1   1.00000   1.00395e-06     1029
     1   109.470   8.94239e-05      343
---------------- Step    13500 ----- CPU =     48.1633 (sec) ----------------
TotEng   =     -3178.4241 Temp     =       294.1157 KinEng   =       600.5416 
PotEng   =     -3778.9656 E_bond   =         0.0000 E_angle  =         0.0000 
E_vdwl   =       715.4584 E_coul   =     14135.5725 E_long   =    -18629.9965 
Press    =      -135.9223 c_c1[4]  =        26.8559 
SHAKE stats (type/ave/delta/count) on step 13600
     1   1.00000   9.93355e-07     1029
     1   109.470   0.000109391      343
---------------- Step    13600 ----- CPU =     48.5252 (sec) ----------------
TotEng   =     -3154.7828 Temp     =       304.5862 KinEng   =       621.9208 
PotEng   =     -3776.7035 E_bond   =         0.0000 E_angle  =         0.0000 
E_vdwl   =       721.9835 E_coul   =     14132.6480 E_long   =    -18631.3351 
Press    =       -87.9265 c_c1[4]  =        27.2059 
SHAKE stats (type/ave/delta/count) on step 13700
     1   1.00000   8.97994e-07     1029
     1   109.470   8.07038e-05      343
---------------- Step    13700 ----- CPU =     48.8512 (sec) ----------------
TotEng   =     -3139.1827 Temp     =       306.3033 KinEng   =       625.4268 
PotEng   =     -3764.6096 E_bond   =         0.0000 E_angle  =         0.0000 
E_vdwl   =       699.2294 E_coul   =     14166.9160 E_long   =    -18630.7550 
Press    =      -620.8024 c_c1[4]  =        27.5042 
SHAKE stats (type/ave/delta/count) on step 13800
     1   1.00000   2.02407e-06     1029
     1   109.470   0.000148360      343
---------------- Step    13800 ----- CPU =     49.2642 (sec) ----------------
TotEng   =     -3160.1104 Temp     =       312.3706 KinEng   =       637.8155 
PotEng   =     -3797.9260 E_bond   =         0.0000 E_angle  =         0.0000 
E_vdwl   =       761.1488 E_coul   =     14069.2700 E_long   =    -18628.3447 
Press    =       505.1598 c_c1[4]  =        28.0444 
SHAKE stats (type/ave/delta/count) on step 13900
     1   1.00000   2.25523e-06     1029
     1   109.470   0.000150056      343
---------------- Step    13900 ----- CPU =     49.6605 (sec) ----------------
TotEng   =     -3203.3844 Temp     =       308.2000 KinEng   =       629.2996 
PotEng   =     -3832.6840 E_bond   =         0.0000 E_angle  =         0.0000 
E_vdwl   =       716.2657 E_coul   =     14080.5050 E_long   =    -18629.4546 
Press    =      -705.3628 c_c1[4]  =        28.4104 
SHAKE stats (type/ave/delta/count) on step 14000
     1   1.00000   1.44394e-06     1029
     1   109.470   9.93202e-05      343
---------------- Step    14000 ----- CPU =     50.0330 (sec) ----------------
TotEng   =     -3230.5916 Temp     =       291.3033 KinEng   =       594.7991 
PotEng   =     -3825.3907 E_bond   =         0.0000 E_angle  =         0.0000 
E_vdwl   =       712.2592 E_coul   =     14091.9783 E_long   =    -18629.6282 
Press    =      -883.3163 c_c1[4]  =        28.3593 
SHAKE stats (type/ave/delta/count) on step 14100
     1   1.00000   9.81833e-07     1029
     1   109.470   7.82113e-05      343
---------------- Step    14100 ----- CPU =     50.3781 (sec) ----------------
TotEng   =     -3230.5220 Temp     =       300.6617 KinEng   =       613.9076 
PotEng   =     -3844.4297 E_bond   =         0.0000 E_angle  =         0.0000 
E_vdwl   =       747.0347 E_coul   =     14037.7972 E_long   =    -18629.2616 
Press    =      -294.9741 c_c1[4]  =        28.2261 
SHAKE stats (type/ave/delta/count) on step 14200
     1   1.00000   1.10929e-06     1029
     1   109.470   9.02337e-05      343
---------------- Step    14200 ----- CPU =     50.7168 (sec) ----------------
TotEng   =     -3219.0965 Temp     =       305.2920 KinEng   =       623.3620 
PotEng   =     -3842.4585 E_bond   =         0.0000 E_angle  =         0.0000 
E_vdwl   =       806.4171 E_coul   =     13981.7919 E_long   =    -18630.6675 
Press    =      1064.4992 c_c1[4]  =        28.1648 
SHAKE stats (type/ave/delta/count) on step 14300
     1   1.00000   1.40889e-06     1029
     1   109.470   0.000104570      343
---------------- Step    14300 ----- CPU =     51.0776 (sec) ----------------
TotEng   =     -3220.9433 Temp     =       302.3547 KinEng   =       617.3645 
PotEng   =     -3838.3078 E_bond   =         0.0000 E_angle  =         0.0000 
E_vdwl   =       740.1399 E_coul   =     14051.8299 E_long   =    -18630.2776 
Press    =      -166.8893 c_c1[4]  =        28.1700 
SHAKE stats (type/ave/delta/count) on step 14400
     1   1.00000   9.35058e-07     1029
     1   109.470   9.71211e-05      343
---------------- Step    14400 ----- CPU =     51.4502 (sec) ----------------
TotEng   =     -3229.9062 Temp     =       282.4714 KinEng   =       576.7656 
PotEng   =     -3806.6718 E_bond   =         0.0000 E_angle  =         0.0000 
E_vdwl   =       691.6442 E_coul   =     14129.9805 E_long   =    -18628.2965 
Press    =     -1042.7108 c_c1[4]  =        28.2294 
SHAKE stats (type/ave/delta/count) on step 14500
     1   1.00000   1.32142e-06     1029
     1   109.470   0.000113219      343
---------------- Step    14500 ----- CPU =     51.8285 (sec) ----------------
TotEng   =     -3209.4102 Temp     =       302.7965 KinEng   =       618.2664 
PotEng   =     -3827.6766 E_bond   =         0.0000 E_angle  =         0.0000 
E_vdwl   =       773.9833 E_coul   =     14027.3776 E_long   =    -18629.0375 
Press    =       496.1677 c_c1[4]  =        28.4305 
SHAKE stats (type/ave/delta/count) on step 14600
     1   1.00000   1.18315e-06     1029
     1   109.470   9.68721e-05      343
---------------- Step    14600 ----- CPU =     52.2169 (sec) ----------------
TotEng   =     -3182.7090 Temp     =       296.9765 KinEng   =       606.3829 
PotEng   =     -3789.0919 E_bond   =         0.0000 E_angle  =         0.0000 
E_vdwl   =       725.1387 E_coul   =     14115.5777 E_long   =    -18629.8083 
Press    =      -141.7963 c_c1[4]  =        28.4724 
SHAKE stats (type/ave/delta/count) on step 14700
     1   1.00000   1.41059e-06     1029
     1   109.470   0.000124368      343
---------------- Step    14700 ----- CPU =     52.5723 (sec) ----------------
TotEng   =     -3150.5660 Temp     =       315.7269 KinEng   =       644.6685 
PotEng   =     -3795.2345 E_bond   =         0.0000 E_angle  =         0.0000 
E_vdwl   =       711.2361 E_coul   =     14123.3195 E_long   =    -18629.7901 
Press    =      -465.2766 c_c1[4]  =        28.4487 
SHAKE stats (type/ave/delta/count) on step 14800
     1   1.00000   1.06713e-06     1029
     1   109.470   8.78287e-05      343
---------------- Step    14800 ----- CPU =     52.9322 (sec) ----------------
TotEng   =     -3127.3435 Temp     =       310.3856 KinEng   =       633.7624 
PotEng   =     -3761.1060 E_bond   =         0.0000 E_angle  =         0.0000 
E_vdwl   =       710.0712 E_coul   =     14157.8366 E_long   =    -18629.0137 
Press    =       -39.7133 c_c1[4]  =        28.5109 
SHAKE stats (type/ave/delta/count) on step 14900
     1   1.00000   1.61598e-06     1029
     1   109.470   0.000138194      343
---------------- Step    14900 ----- CPU =     53.3004 (sec) ----------------
TotEng   =     -3132.7963 Temp     =       312.1310 KinEng   =       637.3263 
PotEng   =     -3770.1225 E_bond   =         0.0000 E_angle  =         0.0000 
E_vdwl   =       780.7139 E_coul   =     14075.3082 E_long   =    -18626.1446 
Press    =      1278.4248 c_c1[4]  =        28.3256 
SHAKE stats (type/ave/delta/count) on step 15000
     1   1.00000   2.00190e-06     1029
     1   109.470   0.000155024      343
---------------- Step    15000 ----- CPU =     53.6456 (sec) ----------------
TotEng   =     -3183.4569 Temp     =       295.2760 KinEng   =       602.9107 
PotEng   =     -3786.3675 E_bond   =         0.0000 E_angle  =         0.0000 
E_vdwl   =       739.0522 E_coul   =     14104.4435 E_long   =    -18629.8632 
Press    =       172.8191 c_c1[4]  =        28.3408 
SHAKE stats (type/ave/delta/count) on step 15100
     1   1.00000   1.25214e-06     1029
     1   109.470   0.000104381      343
---------------- Step    15100 ----- CPU =     54.0196 (sec) ----------------
TotEng   =     -3210.8944 Temp     =       290.8196 KinEng   =       593.8114 
PotEng   =     -3804.7058 E_bond   =         0.0000 E_angle  =         0.0000 
E_vdwl   =       744.5571 E_coul   =     14077.3882 E_long   =    -18626.6510 
Press    =        49.6281 c_c1[4]  =        28.5447 
SHAKE stats (type/ave/delta/count) on step 15200
     1   1.00000   1.24429e-06     1029
     1   109.470   0.000101618      343
---------------- Step    15200 ----- CPU =     54.3682 (sec) ----------------
TotEng   =     -3218.5993 Temp     =       296.4872 KinEng   =       605.3839 
PotEng   =     -3823.9832 E_bond   =         0.0000 E_angle  =         0.0000 
E_vdwl   =       740.9355 E_coul   =     14069.0767 E_long   =    -18633.9954 
Press    =      -108.5235 c_c1[4]  =        28.7811 
SHAKE stats (type/ave/delta/count) on step 15300
     1   1.00000   1.01437e-06     1029
     1   109.470   9.54558e-05      343
---------------- Step    15300 ----- CPU =     54.7380 (sec) ----------------
TotEng   =     -3221.2991 Temp     =       291.0489 KinEng   =       594.2797 
PotEng   =     -3815.5788 E_bond   =         0.0000 E_angle  =         0.0000 
E_vdwl   =       749.3069 E_coul   =     14067.3219 E_long   =    -18632.2076 
Press    =       -11.4733 c_c1[4]  =        28.9231 
SHAKE stats (type/ave/delta/count) on step 15400
     1   1.00000   1.37488e-06     1029
     1   109.470   9.68718e-05      343
---------------- Step    15400 ----- CPU =     55.0891 (sec) ----------------
TotEng   =     -3178.5311 Temp     =       304.4057 KinEng   =       621.5522 
PotEng   =     -3800.0833 E_bond   =         0.0000 E_angle  =         0.0000 
E_vdwl   =       725.2670 E_coul   =     14104.4794 E_long   =    -18629.8297 
Press    =      -383.1201 c_c1[4]  =        28.8483 
SHAKE stats (type/ave/delta/count) on step 15500
     1   1.00000   1.20025e-06     1029
     1   109.470   8.49957e-05      343
---------------- Step    15500 ----- CPU =     55.4891 (sec) ----------------
TotEng   =     -3162.3425 Temp     =       306.1727 KinEng   =       625.1602 
PotEng   =     -3787.5027 E_bond   =         0.0000 E_angle  =         0.0000 
E_vdwl   =       748.7147 E_coul   =     14095.3214 E_long   =    -18631.5388 
Press    =       251.5116 c_c1[4]  =        28.7469 
SHAKE stats (type/ave/delta/count) on step 15600
     1   1.00000   1.06297e-06     1029
     1   109.470   0.000121486      343
---------------- Step    15600 ----- CPU =     55.8816 (sec) ----------------
TotEng   =     -3154.8534 Temp     =       296.9902 KinEng   =       606.4110 
PotEng   =     -3761.2644 E_bond   =         0.0000 E_angle  =         0.0000 
E_vdwl   =       758.2040 E_coul   =     14110.2755 E_long   =    -18629.7438 
Press    =       695.6026 c_c1[4]  =        28.9453 
SHAKE stats (type/ave/delta/count) on step 15700
[...]
     1   1.00000   1.13533e-06     1029
     1   109.470   9.12501e-05      343
---------------- Step    46400 ----- CPU =    165.3347 (sec) ----------------
TotEng   =     -3205.7779 Temp     =       283.5039 KinEng   =       578.8737 
PotEng   =     -3784.6516 E_bond   =         0.0000 E_angle  =         0.0000 
E_vdwl   =       736.7240 E_coul   =     14108.6984 E_long   =    -18630.0740 
Press    =       183.1094 c_c1[4]  =        84.3071 
SHAKE stats (type/ave/delta/count) on step 46500
     1   1.00000   1.30692e-06     1029
     1   109.470   0.000117698      343
---------------- Step    46500 ----- CPU =    165.7113 (sec) ----------------
TotEng   =     -3180.3403 Temp     =       304.8783 KinEng   =       622.5173 
PotEng   =     -3802.8575 E_bond   =         0.0000 E_angle  =         0.0000 
E_vdwl   =       765.3266 E_coul   =     14059.4868 E_long   =    -18627.6709 
Press    =       665.2681 c_c1[4]  =        84.2979 
SHAKE stats (type/ave/delta/count) on step 46600
     1   1.00000   1.28330e-06     1029
     1   109.470   8.71218e-05      343
---------------- Step    46600 ----- CPU =    166.0818 (sec) ----------------
TotEng   =     -3164.3673 Temp     =       299.2719 KinEng   =       611.0697 
PotEng   =     -3775.4370 E_bond   =         0.0000 E_angle  =         0.0000 
E_vdwl   =       810.5916 E_coul   =     14042.6024 E_long   =    -18628.6310 
Press    =      1909.9177 c_c1[4]  =        84.4125 
SHAKE stats (type/ave/delta/count) on step 46700
     1   1.00000   2.05015e-06     1029
     1   109.470   0.000175699      343
---------------- Step    46700 ----- CPU =    166.4777 (sec) ----------------
TotEng   =     -3176.3792 Temp     =       306.3081 KinEng   =       625.4367 
PotEng   =     -3801.8158 E_bond   =         0.0000 E_angle  =         0.0000 
E_vdwl   =       732.9681 E_coul   =     14095.6697 E_long   =    -18630.4537 
Press    =       -14.9668 c_c1[4]  =        84.9067 
SHAKE stats (type/ave/delta/count) on step 46800
     1   1.00000   1.27476e-06     1029
     1   109.470   0.000106904      343
---------------- Step    46800 ----- CPU =    166.8474 (sec) ----------------
TotEng   =     -3228.0471 Temp     =       290.1822 KinEng   =       592.5100 
PotEng   =     -3820.5571 E_bond   =         0.0000 E_angle  =         0.0000 
E_vdwl   =       683.7359 E_coul   =     14126.5967 E_long   =    -18630.8897 
Press    =     -1314.4899 c_c1[4]  =        85.1946 
SHAKE stats (type/ave/delta/count) on step 46900
     1   1.00000   1.24982e-06     1029
     1   109.470   0.000109627      343
---------------- Step    46900 ----- CPU =    167.2396 (sec) ----------------
TotEng   =     -3213.9409 Temp     =       288.5016 KinEng   =       589.0784 
PotEng   =     -3803.0193 E_bond   =         0.0000 E_angle  =         0.0000 
E_vdwl   =       718.3708 E_coul   =     14109.9843 E_long   =    -18631.3744 
Press    =      -419.2082 c_c1[4]  =        85.4370 
SHAKE stats (type/ave/delta/count) on step 47000
     1   1.00000   1.08309e-06     1029
     1   109.470   0.000105219      343
---------------- Step    47000 ----- CPU =    167.6288 (sec) ----------------
TotEng   =     -3182.9100 Temp     =       304.3031 KinEng   =       621.3427 
PotEng   =     -3804.2527 E_bond   =         0.0000 E_angle  =         0.0000 
E_vdwl   =       691.7976 E_coul   =     14133.5929 E_long   =    -18629.6432 
Press    =      -816.7508 c_c1[4]  =        85.0752 
SHAKE stats (type/ave/delta/count) on step 47100
     1   1.00000   1.26369e-06     1029
     1   109.470   7.97819e-05      343
---------------- Step    47100 ----- CPU =    167.9637 (sec) ----------------
TotEng   =     -3168.9324 Temp     =       303.4430 KinEng   =       619.5866 
PotEng   =     -3788.5190 E_bond   =         0.0000 E_angle  =         0.0000 
E_vdwl   =       702.0214 E_coul   =     14136.1640 E_long   =    -18626.7044 
Press    =      -451.0993 c_c1[4]  =        84.6776 
SHAKE stats (type/ave/delta/count) on step 47200
     1   1.00000   1.25424e-06     1029
     1   109.470   0.000100405      343
---------------- Step    47200 ----- CPU =    168.3439 (sec) ----------------
TotEng   =     -3168.4876 Temp     =       300.0329 KinEng   =       612.6237 
PotEng   =     -3781.1113 E_bond   =         0.0000 E_angle  =         0.0000 
E_vdwl   =       756.7955 E_coul   =     14092.6394 E_long   =    -18630.5462 
Press    =       739.1213 c_c1[4]  =        84.6448 
SHAKE stats (type/ave/delta/count) on step 47300
     1   1.00000   1.10852e-06     1029
     1   109.470   0.000101776      343
---------------- Step    47300 ----- CPU =    168.7251 (sec) ----------------
TotEng   =     -3169.6056 Temp     =       294.2714 KinEng   =       600.8594 
PotEng   =     -3770.4651 E_bond   =         0.0000 E_angle  =         0.0000 
E_vdwl   =       789.3688 E_coul   =     14069.8704 E_long   =    -18629.7043 
Press    =      1592.5204 c_c1[4]  =        84.7882 
SHAKE stats (type/ave/delta/count) on step 47400
     1   1.00000   1.83125e-06     1029
     1   109.470   0.000143701      343
---------------- Step    47400 ----- CPU =    169.0706 (sec) ----------------
TotEng   =     -3108.7917 Temp     =       322.8911 KinEng   =       659.2967 
PotEng   =     -3768.0884 E_bond   =         0.0000 E_angle  =         0.0000 
E_vdwl   =       746.7811 E_coul   =     14114.3819 E_long   =    -18629.2514 
Press    =       846.2850 c_c1[4]  =        85.0115 
SHAKE stats (type/ave/delta/count) on step 47500
     1   1.00000   1.42356e-06     1029
     1   109.470   0.000105007      343
---------------- Step    47500 ----- CPU =    169.4139 (sec) ----------------
TotEng   =     -3114.4255 Temp     =       304.8067 KinEng   =       622.3711 
PotEng   =     -3736.7966 E_bond   =         0.0000 E_angle  =         0.0000 
E_vdwl   =       769.2822 E_coul   =     14122.3080 E_long   =    -18628.3868 
Press    =      1336.0527 c_c1[4]  =        85.0670 
SHAKE stats (type/ave/delta/count) on step 47600
     1   1.00000   1.34474e-06     1029
     1   109.470   0.000121292      343
---------------- Step    47600 ----- CPU =    169.7650 (sec) ----------------
TotEng   =     -3145.8967 Temp     =       290.9280 KinEng   =       594.0327 
PotEng   =     -3739.9294 E_bond   =         0.0000 E_angle  =         0.0000 
E_vdwl   =       727.9017 E_coul   =     14161.3071 E_long   =    -18629.1382 
Press    =       318.9748 c_c1[4]  =        85.4841 
SHAKE stats (type/ave/delta/count) on step 47700
     1   1.00000   1.26760e-06     1029
     1   109.470   0.000103269      343
---------------- Step    47700 ----- CPU =    170.1031 (sec) ----------------
TotEng   =     -3163.3069 Temp     =       299.6297 KinEng   =       611.8003 
PotEng   =     -3775.1072 E_bond   =         0.0000 E_angle  =         0.0000 
E_vdwl   =       713.0299 E_coul   =     14142.1355 E_long   =    -18630.2725 
Press    =        -9.9341 c_c1[4]  =        85.9006 
SHAKE stats (type/ave/delta/count) on step 47800
     1   1.00000   1.27346e-06     1029
     1   109.470   0.000105651      343
---------------- Step    47800 ----- CPU =    170.5104 (sec) ----------------
TotEng   =     -3178.5425 Temp     =       295.0297 KinEng   =       602.4077 
PotEng   =     -3780.9503 E_bond   =         0.0000 E_angle  =         0.0000 
E_vdwl   =       796.7084 E_coul   =     14052.2399 E_long   =    -18629.8986 
Press    =      1461.1505 c_c1[4]  =        85.6705 
SHAKE stats (type/ave/delta/count) on step 47900
     1   1.00000   1.75133e-06     1029
     1   109.470   0.000142706      343
---------------- Step    47900 ----- CPU =    170.9052 (sec) ----------------
TotEng   =     -3213.0514 Temp     =       287.7114 KinEng   =       587.4650 
PotEng   =     -3800.5164 E_bond   =         0.0000 E_angle  =         0.0000 
E_vdwl   =       714.1541 E_coul   =     14114.3901 E_long   =    -18629.0607 
Press    =      -451.2475 c_c1[4]  =        85.6461 
SHAKE stats (type/ave/delta/count) on step 48000
     1   1.00000   1.19087e-06     1029
     1   109.470   9.18042e-05      343
---------------- Step    48000 ----- CPU =    171.2724 (sec) ----------------
TotEng   =     -3246.4849 Temp     =       270.9699 KinEng   =       553.2811 
PotEng   =     -3799.7660 E_bond   =         0.0000 E_angle  =         0.0000 
E_vdwl   =       729.5781 E_coul   =     14102.7515 E_long   =    -18632.0956 
Press    =      -113.7171 c_c1[4]  =        85.5995 
SHAKE stats (type/ave/delta/count) on step 48100
     1   1.00000   2.30073e-06     1029
     1   109.470   0.000254784      343
---------------- Step    48100 ----- CPU =    171.6865 (sec) ----------------
TotEng   =     -3207.1446 Temp     =       304.5555 KinEng   =       621.8582 
PotEng   =     -3829.0028 E_bond   =         0.0000 E_angle  =         0.0000 
E_vdwl   =       744.4952 E_coul   =     14057.3149 E_long   =    -18630.8129 
Press    =       -12.5397 c_c1[4]  =        86.1002 
SHAKE stats (type/ave/delta/count) on step 48200
     1   1.00000   8.95782e-07     1029
     1   109.470   9.04557e-05      343
---------------- Step    48200 ----- CPU =    172.0868 (sec) ----------------
TotEng   =     -3175.0297 Temp     =       305.1719 KinEng   =       623.1168 
PotEng   =     -3798.1465 E_bond   =         0.0000 E_angle  =         0.0000 
E_vdwl   =       824.2591 E_coul   =     14007.2722 E_long   =    -18629.6778 
Press    =      1811.9224 c_c1[4]  =        86.2804 
SHAKE stats (type/ave/delta/count) on step 48300
     1   1.00000   1.50070e-06     1029
     1   109.470   0.000111025      343
---------------- Step    48300 ----- CPU =    172.4643 (sec) ----------------
TotEng   =     -3180.7888 Temp     =       298.8982 KinEng   =       610.3068 
PotEng   =     -3791.0957 E_bond   =         0.0000 E_angle  =         0.0000 
E_vdwl   =       746.9973 E_coul   =     14090.7062 E_long   =    -18628.7992 
Press    =       462.5185 c_c1[4]  =        86.3688 
SHAKE stats (type/ave/delta/count) on step 48400
     1   1.00000   1.49612e-06     1029
     1   109.470   9.22568e-05      343
---------------- Step    48400 ----- CPU =    172.8647 (sec) ----------------
TotEng   =     -3206.0754 Temp     =       287.7157 KinEng   =       587.4738 
PotEng   =     -3793.5492 E_bond   =         0.0000 E_angle  =         0.0000 
E_vdwl   =       733.6544 E_coul   =     14104.1324 E_long   =    -18631.3360 
Press    =        -6.4962 c_c1[4]  =        86.4750 
SHAKE stats (type/ave/delta/count) on step 48500
     1   1.00000   1.41177e-06     1029
     1   109.470   0.000130942      343
---------------- Step    48500 ----- CPU =    173.2546 (sec) ----------------
TotEng   =     -3192.3070 Temp     =       301.8909 KinEng   =       616.4175 
PotEng   =     -3808.7245 E_bond   =         0.0000 E_angle  =         0.0000 
E_vdwl   =       746.7605 E_coul   =     14075.2179 E_long   =    -18630.7029 
Press    =       152.8556 c_c1[4]  =        86.2563 
SHAKE stats (type/ave/delta/count) on step 48600
     1   1.00000   9.94951e-07     1029
     1   109.470   0.000113257      343
---------------- Step    48600 ----- CPU =    173.6190 (sec) ----------------
TotEng   =     -3152.8465 Temp     =       306.6746 KinEng   =       626.1851 
PotEng   =     -3779.0317 E_bond   =         0.0000 E_angle  =         0.0000 
E_vdwl   =       738.3012 E_coul   =     14112.5201 E_long   =    -18629.8530 
Press    =       312.6320 c_c1[4]  =        86.2160 
SHAKE stats (type/ave/delta/count) on step 48700
     1   1.00000   1.12034e-06     1029
     1   109.470   9.36447e-05      343
---------------- Step    48700 ----- CPU =    173.9894 (sec) ----------------
TotEng   =     -3132.7761 Temp     =       311.8688 KinEng   =       636.7909 
PotEng   =     -3769.5670 E_bond   =         0.0000 E_angle  =         0.0000 
E_vdwl   =       707.3616 E_coul   =     14152.0694 E_long   =    -18628.9981 
Press    =      -428.9199 c_c1[4]  =        86.8194 
SHAKE stats (type/ave/delta/count) on step 48800
     1   1.00000   1.19534e-06     1029
     1   109.470   9.62476e-05      343
---------------- Step    48800 ----- CPU =    174.4007 (sec) ----------------
TotEng   =     -3120.3851 Temp     =       319.8524 KinEng   =       653.0921 
PotEng   =     -3773.4772 E_bond   =         0.0000 E_angle  =         0.0000 
E_vdwl   =       738.6342 E_coul   =     14117.7178 E_long   =    -18629.8292 
Press    =       189.2917 c_c1[4]  =        87.1781 
SHAKE stats (type/ave/delta/count) on step 48900
     1   1.00000   2.53867e-06     1029
     1   109.470   0.000184417      343
---------------- Step    48900 ----- CPU =    174.8155 (sec) ----------------
TotEng   =     -3170.1546 Temp     =       292.1743 KinEng   =       596.5776 
PotEng   =     -3766.7322 E_bond   =         0.0000 E_angle  =         0.0000 
E_vdwl   =       716.9102 E_coul   =     14144.1398 E_long   =    -18627.7821 
Press    =      -304.5899 c_c1[4]  =        87.7295 
SHAKE stats (type/ave/delta/count) on step 49000
     1   1.00000   1.02848e-06     1029
     1   109.470   8.21484e-05      343
---------------- Step    49000 ----- CPU =    175.1992 (sec) ----------------
TotEng   =     -3190.9928 Temp     =       288.4686 KinEng   =       589.0110 
PotEng   =     -3780.0038 E_bond   =         0.0000 E_angle  =         0.0000 
E_vdwl   =       726.4633 E_coul   =     14125.0572 E_long   =    -18631.5243 
Press    =      -178.0116 c_c1[4]  =        88.4230 
SHAKE stats (type/ave/delta/count) on step 49100
     1   1.00000   1.85407e-06     1029
     1   109.470   0.000114397      343
---------------- Step    49100 ----- CPU =    175.5819 (sec) ----------------
TotEng   =     -3173.2161 Temp     =       301.9400 KinEng   =       616.5176 
PotEng   =     -3789.7337 E_bond   =         0.0000 E_angle  =         0.0000 
E_vdwl   =       673.1618 E_coul   =     14167.7692 E_long   =    -18630.6646 
Press    =     -1115.0915 c_c1[4]  =        88.5169 
SHAKE stats (type/ave/delta/count) on step 49200
     1   1.00000   1.34136e-06     1029
     1   109.470   0.000105909      343
---------------- Step    49200 ----- CPU =    175.9590 (sec) ----------------
TotEng   =     -3138.3833 Temp     =       310.6826 KinEng   =       634.3687 
PotEng   =     -3772.7520 E_bond   =         0.0000 E_angle  =         0.0000 
E_vdwl   =       709.1820 E_coul   =     14145.5612 E_long   =    -18627.4952 
Press    =      -345.5503 c_c1[4]  =        89.0058 
SHAKE stats (type/ave/delta/count) on step 49300
     1   1.00000   1.24010e-06     1029
     1   109.470   9.73942e-05      343
---------------- Step    49300 ----- CPU =    176.3560 (sec) ----------------
TotEng   =     -3132.6815 Temp     =       298.1018 KinEng   =       608.6807 
PotEng   =     -3741.3622 E_bond   =         0.0000 E_angle  =         0.0000 
E_vdwl   =       687.4866 E_coul   =     14198.7742 E_long   =    -18627.6231 
Press    =      -545.5632 c_c1[4]  =        89.0531 
SHAKE stats (type/ave/delta/count) on step 49400
     1   1.00000   2.08583e-06     1029
     1   109.470   0.000242338      343
---------------- Step    49400 ----- CPU =    176.7275 (sec) ----------------
TotEng   =     -3161.2705 Temp     =       299.8544 KinEng   =       612.2591 
PotEng   =     -3773.5297 E_bond   =         0.0000 E_angle  =         0.0000 
E_vdwl   =       734.8153 E_coul   =     14118.7630 E_long   =    -18627.1080 
Press    =       169.8706 c_c1[4]  =        89.3919 
SHAKE stats (type/ave/delta/count) on step 49500
     1   1.00000   1.15284e-06     1029
     1   109.470   8.90883e-05      343
---------------- Step    49500 ----- CPU =    177.0890 (sec) ----------------
TotEng   =     -3203.1017 Temp     =       288.8984 KinEng   =       589.8886 
PotEng   =     -3792.9903 E_bond   =         0.0000 E_angle  =         0.0000 
E_vdwl   =       707.9760 E_coul   =     14126.6298 E_long   =    -18627.5962 
Press    =      -406.8585 c_c1[4]  =        89.6829 
SHAKE stats (type/ave/delta/count) on step 49600
     1   1.00000   1.27315e-06     1029
     1   109.470   0.000106090      343
---------------- Step    49600 ----- CPU =    177.5063 (sec) ----------------
TotEng   =     -3189.1138 Temp     =       292.4477 KinEng   =       597.1357 
PotEng   =     -3786.2494 E_bond   =         0.0000 E_angle  =         0.0000 
E_vdwl   =       718.5252 E_coul   =     14123.7571 E_long   =    -18628.5318 
Press    =      -283.8493 c_c1[4]  =        89.7174 
SHAKE stats (type/ave/delta/count) on step 49700
     1   1.00000   1.48646e-06     1029
     1   109.470   0.000123628      343
---------------- Step    49700 ----- CPU =    177.9045 (sec) ----------------
TotEng   =     -3158.1312 Temp     =       297.7950 KinEng   =       608.0542 
PotEng   =     -3766.1854 E_bond   =         0.0000 E_angle  =         0.0000 
E_vdwl   =       674.1862 E_coul   =     14189.7403 E_long   =    -18630.1120 
Press    =     -1059.4165 c_c1[4]  =        89.5169 
SHAKE stats (type/ave/delta/count) on step 49800
     1   1.00000   1.01904e-06     1029
     1   109.470   9.73786e-05      343
---------------- Step    49800 ----- CPU =    178.2633 (sec) ----------------
TotEng   =     -3131.9727 Temp     =       310.8979 KinEng   =       634.8085 
PotEng   =     -3766.7811 E_bond   =         0.0000 E_angle  =         0.0000 
E_vdwl   =       736.9284 E_coul   =     14124.1922 E_long   =    -18627.9017 
Press    =       119.8079 c_c1[4]  =        89.4330 
SHAKE stats (type/ave/delta/count) on step 49900
     1   1.00000   1.35842e-06     1029
     1   109.470   0.000125495      343
---------------- Step    49900 ----- CPU =    178.6807 (sec) ----------------
TotEng   =     -3139.8821 Temp     =       298.2354 KinEng   =       608.9533 
PotEng   =     -3748.8355 E_bond   =         0.0000 E_angle  =         0.0000 
E_vdwl   =       716.2878 E_coul   =     14164.1963 E_long   =    -18629.3196 
Press    =       223.9274 c_c1[4]  =        89.2113 
SHAKE stats (type/ave/delta/count) on step 50000
     1   1.00000   1.80527e-06     1029
     1   109.470   0.000145162      343
---------------- Step    50000 ----- CPU =    179.0726 (sec) ----------------
TotEng   =     -3166.8929 Temp     =       294.3702 KinEng   =       601.0612 
PotEng   =     -3767.9541 E_bond   =         0.0000 E_angle  =         0.0000 
E_vdwl   =       704.7757 E_coul   =     14155.2059 E_long   =    -18627.9357 
Press    =      -329.4372 c_c1[4]  =        89.5348 
Loop time of 179.073 on 4 procs for 50000 steps with 1029 atoms

Performance: 24.124 ns/day, 0.995 hours/ns, 279.216 timesteps/s
96.8% CPU use with 4 MPI tasks x 1 OpenMP threads

MPI task timing breakdown:
Section |  min time  |  avg time  |  max time  |%varavg| %total
---------------------------------------------------------------
Pair    | 100.13     | 108.71     | 117.45     |  60.5 | 60.71
Bond    | 0.031958   | 0.034951   | 0.039076   |   1.5 |  0.02
Kspace  | 34.612     | 43.43      | 52.024     |  96.3 | 24.25
Neigh   | 8.6358     | 8.6384     | 8.6411     |   0.1 |  4.82
Comm    | 9.3212     | 9.3621     | 9.4374     |   1.5 |  5.23
Output  | 0.48897    | 0.49439    | 0.51062    |   1.3 |  0.28
Modify  | 7.7823     | 7.8057     | 7.8219     |   0.5 |  4.36
Other   |            | 0.5981     |            |       |  0.33

Nlocal:        257.250 ave         282 max         246 min
Histogram: 2 1 0 0 0 0 0 0 0 1
Nghost:        5340.00 ave        5410 max        5272 min
Histogram: 1 0 1 0 0 0 0 1 0 1
Neighs:        92719.5 ave      110953 max       78033 min
Histogram: 1 0 1 0 0 1 0 0 0 1

Total # of neighbors = 370878
Ave neighs/atom = 360.42566
Ave special neighs/atom = 2.0000000
Neighbor list builds = 2051
Dangerous builds = 0
System init for write_data ...
PPPM initialization ...
  using 12-bit tables for long-range coulomb (src/kspace.cpp:340)
  G vector (1/distance) = 0.26919
  grid = 12 12 12
  stencil order = 5
  estimated absolute RMS force accuracy = 0.024006429
  estimated relative force accuracy = 7.2294647e-05
  using double precision FFTW3
  3d grid and FFT values/proc = 3211 432
Total wall time: 0:02:59
