
     Program PHONON v.7.1 starts on 31May2023 at  9:19:37 

     This program is part of the open-source Quantum ESPRESSO suite
     for quantum simulation of materials; please cite
         "P. Giannozzi et al., J. Phys.:Condens. Matter 21 395502 (2009);
         "P. Giannozzi et al., J. Phys.:Condens. Matter 29 465901 (2017);
         "P. Giannozzi et al., J. Chem. Phys. 152 154105 (2020);
          URL http://www.quantum-espresso.org", 
     in publications or presentations arising from this work. More details at
     http://www.quantum-espresso.org/quote

     Parallel version (MPI), running on    24 processors

     MPI processes distributed on     1 nodes
     R & G space division:  proc/nbgrp/npool/nimage =      24
     155102 MiB available memory on the printing compute node when the environment starts
 
     Waiting for input...
     Reading input from standard input
      Title line not specified: using 'default'.

     Reading xml data from directory:

     ./pwscf.save/
     file C.pbe-n-kjpaw_psl.1.0.0.UPF: wavefunction(s)  2S 2P renormalized
     file O.pbe-n-kjpaw_psl.0.1.UPF: wavefunction(s)  2P renormalized

     IMPORTANT: XC functional enforced from input :
     Exchange-correlation= PBE
                           (   1   4   3   4   0   0   0)
     Any further DFT definition will be discarded
     Please, verify this is what you really want

 
     Parallelization info
     --------------------
     sticks:   dense  smooth     PW     G-vecs:    dense   smooth      PW
     Min        2273    1136    284               399495   141218   17654
     Max        2274    1137    285               399500   141221   17656
     Sum       54553   27281   6817              9587919  3389267  423701
 
     Using Slab Decomposition
 

     negative rho (up, down):  1.323E-03 1.323E-03
     Reading collected, re-writing distributed wavefunctions

     Calculation of q =    0.0000000   0.0000000   0.0000000

     default                                                                    

     bravais-lattice index     =            0
     lattice parameter (alat)  =      37.7945  a.u.
     unit-cell volume          =   53986.6760 (a.u.)^3
     number of atoms/cell      =            6
     number of atomic types    =            3
     kinetic-energy cut-off    =      60.0000  Ry
     charge density cut-off    =     480.0000  Ry
     convergence threshold     =      1.0E-12
     beta                      =       0.7000
     number of iterations used =            4
     Exchange-correlation= PBE
                           (   1   4   3   4   0   0   0)


     celldm(1)=   37.79452  celldm(2)=    0.00000  celldm(3)=    0.00000
     celldm(4)=    0.00000  celldm(5)=    0.00000  celldm(6)=    0.00000

     crystal axes: (cart. coord. in units of alat)
               a(1) = (  1.0000  0.0000  0.0000 )  
               a(2) = (  0.0000  1.0000  0.0000 )  
               a(3) = (  0.0000  0.0000  1.0000 )  

     reciprocal axes: (cart. coord. in units 2 pi/alat)
               b(1) = (  1.0000  0.0000  0.0000 )  
               b(2) = (  0.0000  1.0000  0.0000 )  
               b(3) = (  0.0000  0.0000  1.0000 )  


     Atoms inside the unit cell: 

     Cartesian axes

     site n.  atom      mass           positions (alat units)
        1     C   12.0110   tau(    1) = (    0.50293    0.53250    0.50000  )
        2     O   15.9990   tau(    2) = (    0.50326    0.46105    0.50000  )
        3     H    1.0080   tau(    3) = (    0.45034    0.54802    0.50000  )
        4     H    1.0080   tau(    4) = (    0.54940    0.44625    0.50000  )
        5     H    1.0080   tau(    5) = (    0.52726    0.55339    0.54488  )
        6     H    1.0080   tau(    6) = (    0.52726    0.55339    0.45512  )

     Computing dynamical matrix for 
                    q = (   0.0000000   0.0000000   0.0000000 )
 
      2 Sym.Ops. (with q -> -q+G )


     G cutoff =17367.5767  ( 399497 G-vectors)     FFT grid: (270,270,270)
     G cutoff = 8683.7884  ( 141218 G-vectors)  smooth grid: (192,192,192)

     number of k points=     2  Gaussian smearing, width (Ry)=  0.0020
                       cart. coord. in units 2pi/alat
        k(    1) = (   0.0000000   0.0000000   0.0000000), wk =   1.0000000
        k(    2) = (   0.0000000   0.0000000   0.0000000), wk =   1.0000000

     PseudoPot. # 1 for C  read from file:
     /home/cjw/pseudopotential/SSSP_1.1.2_PBE_efficiency/C.pbe-n-kjpaw_psl.1.0.0.UPF
     MD5 check sum: 5d2aebdfa2cae82b50a7e79e9516da0f
     Pseudo is Projector augmented-wave + core cor, Zval =  4.0
     Generated using "atomic" code by A. Dal Corso  v.5.1
     Shape of augmentation charge: PSQ
     Using radial grid of 1073 points,  4 beta functions with: 
                l(1) =   0
                l(2) =   0
                l(3) =   1
                l(4) =   1
     Q(r) pseudized with 0 coefficients 


     PseudoPot. # 2 for O  read from file:
     /home/cjw/pseudopotential/SSSP_1.1.2_PBE_efficiency/O.pbe-n-kjpaw_psl.0.1.UPF
     MD5 check sum: 0234752ac141de4415c5fc33072bef88
     Pseudo is Projector augmented-wave + core cor, Zval =  6.0
     Generated using "atomic" code by A. Dal Corso  v.5.0.99 svn rev. 10869
     Shape of augmentation charge: BESSEL
     Using radial grid of 1095 points,  4 beta functions with: 
                l(1) =   0
                l(2) =   0
                l(3) =   1
                l(4) =   1
     Q(r) pseudized with 0 coefficients 


     PseudoPot. # 3 for H  read from file:
     /home/cjw/pseudopotential/SSSP_1.1.2_PBE_efficiency/H.pbe-rrkjus_psl.1.0.0.UPF
     MD5 check sum: f52b6d4d1c606e5624b1dc7b2218f220
     Pseudo is Ultrasoft, Zval =  1.0
     Generated using "atomic" code by A. Dal Corso  v.5.1
     Using radial grid of  929 points,  2 beta functions with: 
                l(1) =   0
                l(2) =   0
     Q(r) pseudized with 0 coefficients 


     Mode symmetry, C_1 (1)     point group:

     k=gamma and q=gamma tricks are used


     Atomic displacements:
     There are   18 irreducible representations

     Representation     1      1 modes -  To be done

     Representation     2      1 modes -  To be done

     Representation     3      1 modes -  To be done

     Representation     4      1 modes -  To be done

     Representation     5      1 modes -  To be done

     Representation     6      1 modes -  To be done

     Representation     7      1 modes -  To be done

     Representation     8      1 modes -  To be done

     Representation     9      1 modes -  To be done

     Representation    10      1 modes -  To be done

     Representation    11      1 modes -  To be done

     Representation    12      1 modes -  To be done

     Representation    13      1 modes -  To be done

     Representation    14      1 modes -  To be done

     Representation    15      1 modes -  To be done

     Representation    16      1 modes -  To be done

     Representation    17      1 modes -  To be done

     Representation    18      1 modes -  To be done



     Alpha used in Ewald sum =   2.8000

     negative rho (up, down):  1.323E-03 1.323E-03
     PHONON       :   1m50.96s CPU   1m59.26s WALL



     Representation #   1 mode #   1

     Self-consistent Calculation
 
     Pert. #  1: Fermi energy shift (Ry) =    -6.6341E+08    -5.1577E+03

      iter #   1 total cpu time :   131.5 secs   av.it.:   6.0
      thresh= 1.000E-02 alpha_mix =  0.700 |ddv_scf|^2 =  1.053E-07
 
     Pert. #  1: Fermi energy shift (Ry) =    -1.9202E+06    -2.5655E+03

      iter #   2 total cpu time :   152.5 secs   av.it.:  13.0
      thresh= 3.245E-05 alpha_mix =  0.700 |ddv_scf|^2 =  1.922E-08
 
     Pert. #  1: Fermi energy shift (Ry) =     1.2730E+07    -1.0215E+04

      iter #   3 total cpu time :   218.4 secs   av.it.:  14.0
      thresh= 1.386E-05 alpha_mix =  0.700 |ddv_scf|^2 =  1.315E-08
 
     Pert. #  1: Fermi energy shift (Ry) =    -1.7069E+06    -3.5291E+03

      iter #   4 total cpu time :   284.7 secs   av.it.:  14.0
      thresh= 1.147E-05 alpha_mix =  0.700 |ddv_scf|^2 =  7.084E-11
 
     Pert. #  1: Fermi energy shift (Ry) =     1.4636E+04    -4.4724E+03

      iter #   5 total cpu time :   295.9 secs   av.it.:  15.0
      thresh= 8.417E-07 alpha_mix =  0.700 |ddv_scf|^2 =  5.466E-13

     End of self-consistent calculation

     Convergence has been achieved 


     Representation #   2 mode #   2

     Self-consistent Calculation
 
     Pert. #  1: Fermi energy shift (Ry) =    -9.3274E+08     1.2190E+04

      iter #   1 total cpu time :   319.6 secs   av.it.:   6.0
      thresh= 1.000E-02 alpha_mix =  0.700 |ddv_scf|^2 =  4.201E-07
 
     Pert. #  1: Fermi energy shift (Ry) =    -1.0300E+07     2.2408E+04

      iter #   2 total cpu time :   336.3 secs   av.it.:  13.0
      thresh= 6.481E-05 alpha_mix =  0.700 |ddv_scf|^2 =  1.948E-09
 
     Pert. #  1: Fermi energy shift (Ry) =     3.2981E+07     3.6720E+03

      iter #   3 total cpu time :   353.5 secs   av.it.:  16.0
      thresh= 4.413E-06 alpha_mix =  0.700 |ddv_scf|^2 =  5.370E-08
 
     Pert. #  1: Fermi energy shift (Ry) =     3.8283E+06     1.6665E+04

      iter #   4 total cpu time :   370.0 secs   av.it.:  13.0
      thresh= 2.317E-05 alpha_mix =  0.700 |ddv_scf|^2 =  7.338E-12
 
     Pert. #  1: Fermi energy shift (Ry) =     6.7576E+06     1.4260E+04

      iter #   5 total cpu time :   390.8 secs   av.it.:  16.0
      thresh= 2.709E-07 alpha_mix =  0.700 |ddv_scf|^2 =  7.216E-12
 
     Pert. #  1: Fermi energy shift (Ry) =     6.0832E+06     1.5472E+04

      iter #   6 total cpu time :   401.6 secs   av.it.:  15.0
      thresh= 2.686E-07 alpha_mix =  0.700 |ddv_scf|^2 =  3.627E-15

     End of self-consistent calculation

     Convergence has been achieved 


     Representation #   3 mode #   3

     Self-consistent Calculation
 
     Pert. #  1: Fermi energy shift (Ry) =    -9.7871E+04     1.2812E+04

      iter #   1 total cpu time :   423.4 secs   av.it.:   6.0
      thresh= 1.000E-02 alpha_mix =  0.700 |ddv_scf|^2 =  3.170E-07
 
     Pert. #  1: Fermi energy shift (Ry) =    -7.6501E+04     1.6109E+04

      iter #   2 total cpu time :   452.8 secs   av.it.:  11.0
      thresh= 5.630E-05 alpha_mix =  0.700 |ddv_scf|^2 =  2.353E-08
 
     Pert. #  1: Fermi energy shift (Ry) =    -5.8384E+04     1.1097E+04

      iter #   3 total cpu time :   475.0 secs   av.it.:  12.0
      thresh= 1.534E-05 alpha_mix =  0.700 |ddv_scf|^2 =  1.328E-10
 
     Pert. #  1: Fermi energy shift (Ry) =    -6.7016E+04     1.2527E+04

      iter #   4 total cpu time :   486.3 secs   av.it.:  14.0
      thresh= 1.152E-06 alpha_mix =  0.700 |ddv_scf|^2 =  1.653E-13

     End of self-consistent calculation

     Convergence has been achieved 


     Representation #   4 mode #   4

     Self-consistent Calculation
 
     Pert. #  1: Fermi energy shift (Ry) =     6.6194E+08     9.2236E+03

      iter #   1 total cpu time :   511.7 secs   av.it.:   7.0
      thresh= 1.000E-02 alpha_mix =  0.700 |ddv_scf|^2 =  2.109E-07
 
     Pert. #  1: Fermi energy shift (Ry) =    -6.0848E+06     3.4662E+03

      iter #   2 total cpu time :   530.6 secs   av.it.:  13.0
      thresh= 4.592E-05 alpha_mix =  0.700 |ddv_scf|^2 =  7.945E-08
 
     Pert. #  1: Fermi energy shift (Ry) =     3.0368E+07     2.2885E+03

      iter #   3 total cpu time :   550.4 secs   av.it.:  14.0
      thresh= 2.819E-05 alpha_mix =  0.700 |ddv_scf|^2 =  2.526E-07
 
     Pert. #  1: Fermi energy shift (Ry) =    -7.1908E+06     6.1107E+03

      iter #   4 total cpu time :   568.6 secs   av.it.:  13.0
      thresh= 5.026E-05 alpha_mix =  0.700 |ddv_scf|^2 =  6.327E-10
 
     Pert. #  1: Fermi energy shift (Ry) =     1.2820E+06     2.8540E+03

      iter #   5 total cpu time :   596.5 secs   av.it.:  14.0
      thresh= 2.515E-06 alpha_mix =  0.700 |ddv_scf|^2 =  6.276E-12
 
     Pert. #  1: Fermi energy shift (Ry) =    -3.2038E+05     4.6863E+03

      iter #   6 total cpu time :   607.5 secs   av.it.:  16.0
      thresh= 2.505E-07 alpha_mix =  0.700 |ddv_scf|^2 =  4.121E-13

     End of self-consistent calculation

     Convergence has been achieved 


     Representation #   5 mode #   5

     Self-consistent Calculation
 
     Pert. #  1: Fermi energy shift (Ry) =     3.5447E+09    -1.4138E+03

      iter #   1 total cpu time :   629.5 secs   av.it.:   8.0
      thresh= 1.000E-02 alpha_mix =  0.700 |ddv_scf|^2 =  1.296E-08
 
     Pert. #  1: Fermi energy shift (Ry) =    -5.3604E+06     4.3460E+04

      iter #   2 total cpu time :   654.1 secs   av.it.:  15.0
      thresh= 1.138E-05 alpha_mix =  0.700 |ddv_scf|^2 =  1.328E-08
 
     Pert. #  1: Fermi energy shift (Ry) =     4.5029E+06     1.7491E+04

      iter #   3 total cpu time :   724.3 secs   av.it.:  14.0
      thresh= 1.153E-05 alpha_mix =  0.700 |ddv_scf|^2 =  4.821E-10
 
     Pert. #  1: Fermi energy shift (Ry) =    -4.8783E+04     1.9167E+04

      iter #   4 total cpu time :   796.5 secs   av.it.:  15.0
      thresh= 2.196E-06 alpha_mix =  0.700 |ddv_scf|^2 =  3.793E-10
 
     Pert. #  1: Fermi energy shift (Ry) =     5.3001E+06     1.3191E+04

      iter #   5 total cpu time :   814.1 secs   av.it.:  15.0
      thresh= 1.948E-06 alpha_mix =  0.700 |ddv_scf|^2 =  1.148E-11
 
     Pert. #  1: Fermi energy shift (Ry) =     4.0161E+06     1.5436E+04

      iter #   6 total cpu time :   825.1 secs   av.it.:  16.0
      thresh= 3.389E-07 alpha_mix =  0.700 |ddv_scf|^2 =  4.837E-13

     End of self-consistent calculation

     Convergence has been achieved 


     Representation #   6 mode #   6

     Self-consistent Calculation
 
     Pert. #  1: Fermi energy shift (Ry) =     2.9208E+04    -3.8196E+04

      iter #   1 total cpu time :   848.2 secs   av.it.:   7.0
      thresh= 1.000E-02 alpha_mix =  0.700 |ddv_scf|^2 =  1.098E-07
 
     Pert. #  1: Fermi energy shift (Ry) =     1.5057E+05     4.5127E+03

      iter #   2 total cpu time :   865.0 secs   av.it.:  14.0
      thresh= 3.314E-05 alpha_mix =  0.700 |ddv_scf|^2 =  5.455E-09
 
     Pert. #  1: Fermi energy shift (Ry) =     4.2900E+04    -1.2833E+04

      iter #   3 total cpu time :   882.7 secs   av.it.:  14.0
      thresh= 7.386E-06 alpha_mix =  0.700 |ddv_scf|^2 =  2.689E-10
 
     Pert. #  1: Fermi energy shift (Ry) =     2.8969E+04    -1.3074E+04

      iter #   4 total cpu time :   893.0 secs   av.it.:  14.0
      thresh= 1.640E-06 alpha_mix =  0.700 |ddv_scf|^2 =  6.301E-14

     End of self-consistent calculation

     Convergence has been achieved 


     Representation #   7 mode #   7

     Self-consistent Calculation
 
     Pert. #  1: Fermi energy shift (Ry) =     6.1673E+08    -7.2449E+03

      iter #   1 total cpu time :   914.2 secs   av.it.:   4.0
      thresh= 1.000E-02 alpha_mix =  0.700 |ddv_scf|^2 =  1.157E-10
 
     Pert. #  1: Fermi energy shift (Ry) =    -1.3398E+06     5.5557E+03

      iter #   2 total cpu time :   931.4 secs   av.it.:  16.0
      thresh= 1.076E-06 alpha_mix =  0.700 |ddv_scf|^2 =  1.603E-09
 
     Pert. #  1: Fermi energy shift (Ry) =    -2.4295E+06     9.3992E+03

      iter #   3 total cpu time :   948.8 secs   av.it.:  13.0
      thresh= 4.004E-06 alpha_mix =  0.700 |ddv_scf|^2 =  3.121E-09
 
     Pert. #  1: Fermi energy shift (Ry) =    -1.4907E+06     1.6431E+03

      iter #   4 total cpu time :  1008.2 secs   av.it.:  14.0
      thresh= 5.586E-06 alpha_mix =  0.700 |ddv_scf|^2 =  4.989E-12
 
     Pert. #  1: Fermi energy shift (Ry) =     1.1400E+06    -1.2344E+03

      iter #   5 total cpu time :  1077.0 secs   av.it.:  16.0
      thresh= 2.234E-07 alpha_mix =  0.700 |ddv_scf|^2 =  5.511E-12
 
     Pert. #  1: Fermi energy shift (Ry) =     8.2037E+05    -1.0158E+03

      iter #   6 total cpu time :  1087.4 secs   av.it.:  14.0
      thresh= 2.348E-07 alpha_mix =  0.700 |ddv_scf|^2 =  4.753E-14

     End of self-consistent calculation

     Convergence has been achieved 


     Representation #   8 mode #   8

     Self-consistent Calculation
 
     Pert. #  1: Fermi energy shift (Ry) =    -7.1962E+08     8.4900E+03

      iter #   1 total cpu time :  1108.6 secs   av.it.:   4.0
      thresh= 1.000E-02 alpha_mix =  0.700 |ddv_scf|^2 =  1.011E-10
 
     Pert. #  1: Fermi energy shift (Ry) =    -1.5142E+06     4.1093E+03

      iter #   2 total cpu time :  1126.7 secs   av.it.:  15.0
      thresh= 1.006E-06 alpha_mix =  0.700 |ddv_scf|^2 =  6.602E-10
 
     Pert. #  1: Fermi energy shift (Ry) =    -2.0187E+05     4.5413E+03

      iter #   3 total cpu time :  1144.0 secs   av.it.:  13.0
      thresh= 2.569E-06 alpha_mix =  0.700 |ddv_scf|^2 =  1.378E-10
 
     Pert. #  1: Fermi energy shift (Ry) =    -2.2280E+05     5.7341E+03

      iter #   4 total cpu time :  1155.0 secs   av.it.:  14.0
      thresh= 1.174E-06 alpha_mix =  0.700 |ddv_scf|^2 =  3.417E-13

     End of self-consistent calculation

     Convergence has been achieved 


     Representation #   9 mode #   9

     Self-consistent Calculation
 
     Pert. #  1: Fermi energy shift (Ry) =    -1.6696E+04    -4.1829E+03

      iter #   1 total cpu time :  1178.4 secs   av.it.:   4.0
      thresh= 1.000E-02 alpha_mix =  0.700 |ddv_scf|^2 =  8.823E-10
 
     Pert. #  1: Fermi energy shift (Ry) =    -5.3480E+03    -3.0746E+03

      iter #   2 total cpu time :  1197.8 secs   av.it.:  13.0
      thresh= 2.970E-06 alpha_mix =  0.700 |ddv_scf|^2 =  1.394E-10
 
     Pert. #  1: Fermi energy shift (Ry) =     3.6983E+03    -3.8395E+03

      iter #   3 total cpu time :  1215.6 secs   av.it.:  13.0
      thresh= 1.181E-06 alpha_mix =  0.700 |ddv_scf|^2 =  6.984E-12
 
     Pert. #  1: Fermi energy shift (Ry) =    -3.8390E+03    -3.5538E+03

      iter #   4 total cpu time :  1226.2 secs   av.it.:  14.0
      thresh= 2.643E-07 alpha_mix =  0.700 |ddv_scf|^2 =  7.277E-16

     End of self-consistent calculation

     Convergence has been achieved 


     Representation #  10 mode #  10

     Self-consistent Calculation
 
     Pert. #  1: Fermi energy shift (Ry) =    -2.0537E+09    -2.3407E+03

      iter #   1 total cpu time :  1249.0 secs   av.it.:   5.0
      thresh= 1.000E-02 alpha_mix =  0.700 |ddv_scf|^2 =  1.604E-09
 
     Pert. #  1: Fermi energy shift (Ry) =    -6.5910E+06     6.8123E+03

      iter #   2 total cpu time :  1266.2 secs   av.it.:  15.0
      thresh= 4.005E-06 alpha_mix =  0.700 |ddv_scf|^2 =  1.218E-08
 
     Pert. #  1: Fermi energy shift (Ry) =    -2.0018E+07     1.2922E+04

      iter #   3 total cpu time :  1283.3 secs   av.it.:  13.0
      thresh= 1.103E-05 alpha_mix =  0.700 |ddv_scf|^2 =  4.055E-08
 
     Pert. #  1: Fermi energy shift (Ry) =     6.2047E+06     1.7073E+03

      iter #   4 total cpu time :  1304.5 secs   av.it.:  13.0
      thresh= 2.014E-05 alpha_mix =  0.700 |ddv_scf|^2 =  6.552E-12
 
     Pert. #  1: Fermi energy shift (Ry) =     4.8627E+06     7.6469E+02

      iter #   5 total cpu time :  1321.3 secs   av.it.:  15.0
      thresh= 2.560E-07 alpha_mix =  0.700 |ddv_scf|^2 =  2.111E-12
 
     Pert. #  1: Fermi energy shift (Ry) =     4.7194E+06     1.0855E+03

      iter #   6 total cpu time :  1331.9 secs   av.it.:  14.0
      thresh= 1.453E-07 alpha_mix =  0.700 |ddv_scf|^2 =  1.115E-13

     End of self-consistent calculation

     Convergence has been achieved 


     Representation #  11 mode #  11

     Self-consistent Calculation
 
     Pert. #  1: Fermi energy shift (Ry) =     1.8664E+09     4.8013E+03

      iter #   1 total cpu time :  1353.8 secs   av.it.:   5.0
      thresh= 1.000E-02 alpha_mix =  0.700 |ddv_scf|^2 =  4.663E-10
 
     Pert. #  1: Fermi energy shift (Ry) =     6.3149E+05     4.2872E+03

      iter #   2 total cpu time :  1372.5 secs   av.it.:  15.0
      thresh= 2.159E-06 alpha_mix =  0.700 |ddv_scf|^2 =  5.006E-10
 
     Pert. #  1: Fermi energy shift (Ry) =    -1.4308E+06     4.1588E+03

      iter #   3 total cpu time :  1383.1 secs   av.it.:  13.0
      thresh= 2.237E-06 alpha_mix =  0.700 |ddv_scf|^2 =  4.436E-13

     End of self-consistent calculation

     Convergence has been achieved 


     Representation #  12 mode #  12

     Self-consistent Calculation
 
     Pert. #  1: Fermi energy shift (Ry) =    -8.7091E+03    -1.1533E+04

      iter #   1 total cpu time :  1402.9 secs   av.it.:   4.0
      thresh= 1.000E-02 alpha_mix =  0.700 |ddv_scf|^2 =  1.686E-09
 
     Pert. #  1: Fermi energy shift (Ry) =     1.7792E+04    -1.0483E+04

      iter #   2 total cpu time :  1422.3 secs   av.it.:  13.0
      thresh= 4.106E-06 alpha_mix =  0.700 |ddv_scf|^2 =  1.160E-10
 
     Pert. #  1: Fermi energy shift (Ry) =    -6.5631E+03    -1.1467E+04

      iter #   3 total cpu time :  1440.0 secs   av.it.:  13.0
      thresh= 1.077E-06 alpha_mix =  0.700 |ddv_scf|^2 =  1.505E-12
 
     Pert. #  1: Fermi energy shift (Ry) =    -8.0095E+02    -1.1191E+04

      iter #   4 total cpu time :  1450.8 secs   av.it.:  14.0
      thresh= 1.227E-07 alpha_mix =  0.700 |ddv_scf|^2 =  2.138E-14

     End of self-consistent calculation

     Convergence has been achieved 


     Representation #  13 mode #  13

     Self-consistent Calculation
 
     Pert. #  1: Fermi energy shift (Ry) =    -1.0340E+09     3.6671E+03

      iter #   1 total cpu time :  1479.7 secs   av.it.:   4.0
      thresh= 1.000E-02 alpha_mix =  0.700 |ddv_scf|^2 =  9.796E-10
 
     Pert. #  1: Fermi energy shift (Ry) =    -5.1944E+05    -5.4117E+02

      iter #   2 total cpu time :  1503.2 secs   av.it.:  16.0
      thresh= 3.130E-06 alpha_mix =  0.700 |ddv_scf|^2 =  1.048E-09
 
     Pert. #  1: Fermi energy shift (Ry) =     2.5167E+06    -1.7758E+04

      iter #   3 total cpu time :  1523.0 secs   av.it.:  16.0
      thresh= 3.238E-06 alpha_mix =  0.700 |ddv_scf|^2 =  2.674E-08
 
     Pert. #  1: Fermi energy shift (Ry) =     1.4832E+06     2.0700E+03

      iter #   4 total cpu time :  1540.4 secs   av.it.:  14.0
      thresh= 1.635E-05 alpha_mix =  0.700 |ddv_scf|^2 =  1.974E-12
 
     Pert. #  1: Fermi energy shift (Ry) =    -7.6697E+05     2.7780E+03

      iter #   5 total cpu time :  1599.2 secs   av.it.:  16.0
      thresh= 1.405E-07 alpha_mix =  0.700 |ddv_scf|^2 =  8.118E-14

     End of self-consistent calculation

     Convergence has been achieved 


     Representation #  14 mode #  14

     Self-consistent Calculation
 
     Pert. #  1: Fermi energy shift (Ry) =     8.0176E+08    -6.0774E+03

      iter #   1 total cpu time :  1648.8 secs   av.it.:   5.0
      thresh= 1.000E-02 alpha_mix =  0.700 |ddv_scf|^2 =  6.704E-10
 
     Pert. #  1: Fermi energy shift (Ry) =    -1.2442E+06    -1.0783E+04

      iter #   2 total cpu time :  1672.8 secs   av.it.:  16.0
      thresh= 2.589E-06 alpha_mix =  0.700 |ddv_scf|^2 =  3.891E-10
 
     Pert. #  1: Fermi energy shift (Ry) =     6.4701E+05    -8.9181E+03

      iter #   3 total cpu time :  1691.7 secs   av.it.:  14.0
      thresh= 1.973E-06 alpha_mix =  0.700 |ddv_scf|^2 =  2.775E-11
 
     Pert. #  1: Fermi energy shift (Ry) =     5.6726E+04    -7.9091E+03

      iter #   4 total cpu time :  1714.4 secs   av.it.:  16.0
      thresh= 5.268E-07 alpha_mix =  0.700 |ddv_scf|^2 =  8.747E-12
 
     Pert. #  1: Fermi energy shift (Ry) =     6.1341E+05    -9.0297E+03

      iter #   5 total cpu time :  1726.6 secs   av.it.:  17.0
      thresh= 2.957E-07 alpha_mix =  0.700 |ddv_scf|^2 =  8.081E-13

     End of self-consistent calculation

     Convergence has been achieved 


     Representation #  15 mode #  15

     Self-consistent Calculation
 
     Pert. #  1: Fermi energy shift (Ry) =    -2.5684E+08     5.8747E+03

      iter #   1 total cpu time :  1748.9 secs   av.it.:   5.0
      thresh= 1.000E-02 alpha_mix =  0.700 |ddv_scf|^2 =  2.957E-09
 
     Pert. #  1: Fermi energy shift (Ry) =     4.2084E+05    -4.7534E+03

      iter #   2 total cpu time :  1772.2 secs   av.it.:  16.0
      thresh= 5.438E-06 alpha_mix =  0.700 |ddv_scf|^2 =  1.017E-10
 
     Pert. #  1: Fermi energy shift (Ry) =    -2.3078E+06     3.7191E+03

      iter #   3 total cpu time :  1792.6 secs   av.it.:  16.0
      thresh= 1.009E-06 alpha_mix =  0.700 |ddv_scf|^2 =  1.073E-10
 
     Pert. #  1: Fermi energy shift (Ry) =    -5.2170E+05     7.6383E+02

      iter #   4 total cpu time :  1810.8 secs   av.it.:  16.0
      thresh= 1.036E-06 alpha_mix =  0.700 |ddv_scf|^2 =  3.974E-11
 
     Pert. #  1: Fermi energy shift (Ry) =    -1.1359E+06     1.0281E+03

      iter #   5 total cpu time :  1821.8 secs   av.it.:  14.0
      thresh= 6.304E-07 alpha_mix =  0.700 |ddv_scf|^2 =  3.022E-14

     End of self-consistent calculation

     Convergence has been achieved 


     Representation #  16 mode #  16

     Self-consistent Calculation
 
     Pert. #  1: Fermi energy shift (Ry) =    -1.0340E+09    -9.9413E+03

      iter #   1 total cpu time :  1845.7 secs   av.it.:   4.0
      thresh= 1.000E-02 alpha_mix =  0.700 |ddv_scf|^2 =  1.174E-09
 
     Pert. #  1: Fermi energy shift (Ry) =    -4.8321E+05    -1.4220E+04

      iter #   2 total cpu time :  1865.9 secs   av.it.:  16.0
      thresh= 3.426E-06 alpha_mix =  0.700 |ddv_scf|^2 =  1.060E-09
 
     Pert. #  1: Fermi energy shift (Ry) =    -4.7893E+06     1.4654E+04

      iter #   3 total cpu time :  1936.6 secs   av.it.:  16.0
      thresh= 3.255E-06 alpha_mix =  0.700 |ddv_scf|^2 =  3.961E-08
 
     Pert. #  1: Fermi energy shift (Ry) =    -2.8941E+06    -1.1957E+04

      iter #   4 total cpu time :  2001.2 secs   av.it.:  14.0
      thresh= 1.990E-05 alpha_mix =  0.700 |ddv_scf|^2 =  2.954E-12
 
     Pert. #  1: Fermi energy shift (Ry) =    -7.7230E+05    -1.1208E+04

      iter #   5 total cpu time :  2019.0 secs   av.it.:  17.0
      thresh= 1.719E-07 alpha_mix =  0.700 |ddv_scf|^2 =  6.375E-14

     End of self-consistent calculation

     Convergence has been achieved 


     Representation #  17 mode #  17

     Self-consistent Calculation
 
     Pert. #  1: Fermi energy shift (Ry) =     8.0171E+08     8.4501E+03

      iter #   1 total cpu time :  2040.7 secs   av.it.:   5.0
      thresh= 1.000E-02 alpha_mix =  0.700 |ddv_scf|^2 =  1.180E-08
 
     Pert. #  1: Fermi energy shift (Ry) =    -1.1317E+06     5.8317E+03

      iter #   2 total cpu time :  2058.7 secs   av.it.:  15.0
      thresh= 1.086E-05 alpha_mix =  0.700 |ddv_scf|^2 =  2.272E-11
 
     Pert. #  1: Fermi energy shift (Ry) =     1.7065E+06     8.9270E+03

      iter #   3 total cpu time :  2077.5 secs   av.it.:  18.0
      thresh= 4.766E-07 alpha_mix =  0.700 |ddv_scf|^2 =  9.650E-10
 
     Pert. #  1: Fermi energy shift (Ry) =    -4.6245E+05     8.4610E+03

      iter #   4 total cpu time :  2090.0 secs   av.it.:  14.0
      thresh= 3.107E-06 alpha_mix =  0.700 |ddv_scf|^2 =  6.864E-14

     End of self-consistent calculation

     Convergence has been achieved 


     Representation #  18 mode #  18

     Self-consistent Calculation
 
     Pert. #  1: Fermi energy shift (Ry) =     2.5685E+08     1.4416E+04

      iter #   1 total cpu time :  2119.1 secs   av.it.:   5.0
      thresh= 1.000E-02 alpha_mix =  0.700 |ddv_scf|^2 =  1.475E-09
 
     Pert. #  1: Fermi energy shift (Ry) =    -5.4495E+05     2.3620E+04

      iter #   2 total cpu time :  2136.1 secs   av.it.:  16.0
      thresh= 3.840E-06 alpha_mix =  0.700 |ddv_scf|^2 =  1.919E-09
 
     Pert. #  1: Fermi energy shift (Ry) =    -1.7982E+07     6.9331E+04

      iter #   3 total cpu time :  2154.8 secs   av.it.:  16.0
      thresh= 4.381E-06 alpha_mix =  0.700 |ddv_scf|^2 =  6.311E-08
 
     Pert. #  1: Fermi energy shift (Ry) =    -2.8078E+05     2.0167E+04

      iter #   4 total cpu time :  2173.6 secs   av.it.:  14.0
      thresh= 2.512E-05 alpha_mix =  0.700 |ddv_scf|^2 =  1.764E-12
 
     Pert. #  1: Fermi energy shift (Ry) =     2.5635E+06     1.5864E+04

      iter #   5 total cpu time :  2254.7 secs   av.it.:  19.0
      thresh= 1.328E-07 alpha_mix =  0.700 |ddv_scf|^2 =  2.070E-11
 
     Pert. #  1: Fermi energy shift (Ry) =     8.8553E+05     1.7743E+04

      iter #   6 total cpu time :  2265.5 secs   av.it.:  15.0
      thresh= 4.549E-07 alpha_mix =  0.700 |ddv_scf|^2 =  1.637E-15

     End of self-consistent calculation

     Convergence has been achieved 
 
     Number of q in the star =    1
     List of q in the star:
          1   0.000000000   0.000000000   0.000000000

     Diagonalizing the dynamical matrix

     q = (    0.000000000   0.000000000   0.000000000 ) 

 **************************************************************************
     freq (    1) =      -8.656421 [THz] =    -288.747137 [cm-1]
     freq (    2) =      -4.698919 [THz] =    -156.739078 [cm-1]
     freq (    3) =      -2.974973 [THz] =     -99.234410 [cm-1]
     freq (    4) =       2.379619 [THz] =      79.375545 [cm-1]
     freq (    5) =       3.767498 [THz] =     125.670207 [cm-1]
     freq (    6) =       9.109750 [THz] =     303.868551 [cm-1]
     freq (    7) =       9.732744 [THz] =     324.649395 [cm-1]
     freq (    8) =      27.381792 [THz] =     913.358282 [cm-1]
     freq (    9) =      32.439034 [THz] =    1082.049710 [cm-1]
     freq (   10) =      35.019765 [THz] =    1168.133635 [cm-1]
     freq (   11) =      40.112394 [THz] =    1338.005427 [cm-1]
     freq (   12) =      42.347263 [THz] =    1412.552630 [cm-1]
     freq (   13) =      43.497373 [THz] =    1450.916171 [cm-1]
     freq (   14) =      43.868603 [THz] =    1463.299080 [cm-1]
     freq (   15) =      86.124019 [THz] =    2872.788031 [cm-1]
     freq (   16) =      89.191635 [THz] =    2975.112712 [cm-1]
     freq (   17) =      91.383907 [THz] =    3048.239019 [cm-1]
     freq (   18) =     111.812270 [THz] =    3729.655863 [cm-1]
 **************************************************************************

     Mode symmetry, C_1 (1)     point group:

     freq (   1-   1) =       -288.7  [cm-1]   -->   ?
     freq (   2-   2) =       -156.7  [cm-1]   -->   ?
     freq (   3-   3) =        -99.2  [cm-1]   -->   ?
     freq (   4-   4) =         79.4  [cm-1]   -->   ?
     freq (   5-   5) =        125.7  [cm-1]   -->   ?
     freq (   6-   6) =        303.9  [cm-1]   -->   ?
     freq (   7-   7) =        324.6  [cm-1]   --> A               I+R
     freq (   8-   8) =        913.4  [cm-1]   --> A               I+R
     freq (   9-   9) =       1082.0  [cm-1]   --> A               I+R
     freq (  10-  10) =       1168.1  [cm-1]   --> A               I+R
     freq (  11-  11) =       1338.0  [cm-1]   --> A               I+R
     freq (  12-  12) =       1412.6  [cm-1]   --> A               I+R
     freq (  13-  13) =       1450.9  [cm-1]   --> A               I+R
     freq (  14-  14) =       1463.3  [cm-1]   --> A               I+R
     freq (  15-  15) =       2872.8  [cm-1]   --> A               I+R
     freq (  16-  16) =       2975.1  [cm-1]   --> A               I+R
     freq (  17-  17) =       3048.2  [cm-1]   --> A               I+R
     freq (  18-  18) =       3729.7  [cm-1]   --> A               I+R
 
     PHONON       :  27m14.93s CPU  37m56.31s WALL

     INITIALIZATION: 
     phq_setup    :      4.40s CPU      5.52s WALL (       1 calls)
     phq_init     :     97.77s CPU    103.12s WALL (       1 calls)
 
     phq_init     :     97.77s CPU    103.12s WALL (       1 calls)
     set_drhoc    :     17.99s CPU     18.26s WALL (       3 calls)
     init_vloc    :      0.22s CPU      0.22s WALL (       1 calls)
     init_us_1    :      0.02s CPU      0.02s WALL (       1 calls)
     init_us_2    :      1.17s CPU      1.26s WALL (     290 calls)
     newd         :      0.59s CPU      0.99s WALL (       1 calls)
     dvanqq       :     37.17s CPU     39.71s WALL (       1 calls)
     drho         :     32.63s CPU     34.89s WALL (       1 calls)
 
     DYNAMICAL MATRIX:
     dynmat0      :     15.67s CPU     16.14s WALL (       1 calls)
     phqscf       :   1523.65s CPU   2156.48s WALL (       1 calls)
     dynmatrix    :      0.29s CPU      0.30s WALL (       1 calls)
 
     phqscf       :   1523.65s CPU   2156.48s WALL (       1 calls)
     solve_linter :   1514.29s CPU   2119.31s WALL (      18 calls)
     drhodv       :      9.07s CPU      9.64s WALL (      18 calls)
 
     dynmat0      :     15.67s CPU     16.14s WALL (       1 calls)
     dynmat_us    :      0.81s CPU      0.82s WALL (       1 calls)
     d2ionq       :      0.71s CPU      0.72s WALL (       1 calls)
     dynmatcc     :     13.92s CPU     14.35s WALL (       1 calls)
 
     dynmat_us    :      0.81s CPU      0.82s WALL (       1 calls)
     addusdynmat  :      0.00s CPU      0.00s WALL (       1 calls)
 
     phqscf       :   1523.65s CPU   2156.48s WALL (       1 calls)
     solve_linter :   1514.29s CPU   2119.31s WALL (      18 calls)
 
     solve_linter :   1514.29s CPU   2119.31s WALL (      18 calls)
     dvqpsi_us    :      9.83s CPU     10.37s WALL (      36 calls)
     sth_kernel   :    813.39s CPU    847.91s WALL (      88 calls)
     apply_dpot_b :     41.88s CPU     43.60s WALL (     140 calls)
     ortho        :      3.85s CPU      3.95s WALL (     176 calls)
     cgsolve      :    716.63s CPU    746.28s WALL (     176 calls)
     incdrhoscf   :     46.68s CPU     48.73s WALL (     176 calls)
     addusddens   :    142.10s CPU    150.02s WALL (     106 calls)
     dv_of_drho   :    136.74s CPU    164.42s WALL (      88 calls)
     mix_pot      :     12.37s CPU    357.61s WALL (      88 calls)
     ef_shift     :     17.76s CPU     19.73s WALL (      88 calls)
     ef_shift_wfc :      0.07s CPU      0.27s WALL (      18 calls)
     localdos     :     33.39s CPU     34.91s WALL (      18 calls)
     newdq        :    104.26s CPU    110.70s WALL (      88 calls)
     adddvscf     :      1.50s CPU      1.52s WALL (     140 calls)
     drhodvus     :      3.07s CPU      6.99s WALL (      18 calls)
 
     dvqpsi_us    :      9.83s CPU     10.37s WALL (      36 calls)
     dvqpsi_us_on :      0.26s CPU      0.27s WALL (      36 calls)
 
     cgsolve      :    716.63s CPU    746.28s WALL (     176 calls)
     ch_psi       :    673.42s CPU    701.65s WALL (    3386 calls)
 
     ch_psi       :    673.42s CPU    701.65s WALL (    3386 calls)
     h_psi        :    614.39s CPU    641.19s WALL (    3386 calls)
     last         :     48.94s CPU     50.19s WALL (    3386 calls)
 
     h_psi        :    614.39s CPU    641.19s WALL (    3386 calls)
     add_vuspsi   :      6.32s CPU      6.40s WALL (    3386 calls)
 
     incdrhoscf   :     46.68s CPU     48.73s WALL (     176 calls)
     addusdbec    :      1.53s CPU      1.54s WALL (     212 calls)
 
     drhodvus     :      3.07s CPU      6.99s WALL (      18 calls)
 
      General routines
     calbec       :     44.53s CPU     45.74s WALL (    7360 calls)
     fft          :    186.77s CPU    210.44s WALL (    3813 calls)
     ffts         :     19.50s CPU     21.11s WALL (    1056 calls)
     fftw         :    627.99s CPU    657.47s WALL (   37990 calls)
     davcio       :      0.29s CPU     16.41s WALL (    1820 calls)
     write_rec    :      1.53s CPU    192.66s WALL (     106 calls)
 
 
     PHONON       :  27m14.93s CPU  37m56.31s WALL

 
   This run was terminated on:   9:57:33  31May2023            

=------------------------------------------------------------------------------=
   JOB DONE.
=------------------------------------------------------------------------------=
