
     Program PWSCF v.7.1 starts on 31May2023 at  9:15:19 

     This program is part of the open-source Quantum ESPRESSO suite
     for quantum simulation of materials; please cite
         "P. Giannozzi et al., J. Phys.:Condens. Matter 21 395502 (2009);
         "P. Giannozzi et al., J. Phys.:Condens. Matter 29 465901 (2017);
         "P. Giannozzi et al., J. Chem. Phys. 152 154105 (2020);
          URL http://www.quantum-espresso.org", 
     in publications or presentations arising from this work. More details at
     http://www.quantum-espresso.org/quote

     Parallel version (MPI), running on    24 processors

     MPI processes distributed on     1 nodes
     155759 MiB available memory on the printing compute node when the environment starts
 
     Waiting for input...
     Reading input from standard input

     Current dimensions of program PWSCF are:
     Max number of different atomic species (ntypx) = 10
     Max number of k-points (npk) =  40000
     Max angular momentum in pseudopotentials (lmaxx) =  4
     file C.pbe-n-kjpaw_psl.1.0.0.UPF: wavefunction(s)  2S 2P renormalized
     file O.pbe-n-kjpaw_psl.0.1.UPF: wavefunction(s)  2P renormalized
 
     R & G space division:  proc/nbgrp/npool/nimage =      24
     Subspace diagonalization in iterative solution of the eigenvalue problem:
     a serial algorithm will be used

 
     Parallelization info
     --------------------
     sticks:   dense  smooth     PW     G-vecs:    dense   smooth      PW
     Min        2273    1136    284               399495   141218   17654
     Max        2274    1137    285               399500   141221   17656
     Sum       54553   27281   6817              9587919  3389267  423701
 
     Using Slab Decomposition
 


     bravais-lattice index     =            0
     lattice parameter (alat)  =      37.7945  a.u.
     unit-cell volume          =   53986.6760 (a.u.)^3
     number of atoms/cell      =            6
     number of atomic types    =            3
     number of electrons       =        14.00
     number of Kohn-Sham states=           11
     kinetic-energy cutoff     =      60.0000  Ry
     charge density cutoff     =     480.0000  Ry
     scf convergence threshold =      1.0E-06
     mixing beta               =       0.7000
     number of iterations used =            8  plain     mixing
     energy convergence thresh.=      1.0E-04
     force convergence thresh. =      1.0E-03
     Exchange-correlation= PBE
                           (   1   4   3   4   0   0   0)
     nstep                     =           50


     celldm(1)=  37.794522  celldm(2)=   0.000000  celldm(3)=   0.000000
     celldm(4)=   0.000000  celldm(5)=   0.000000  celldm(6)=   0.000000

     crystal axes: (cart. coord. in units of alat)
               a(1) = (   1.000000   0.000000   0.000000 )  
               a(2) = (   0.000000   1.000000   0.000000 )  
               a(3) = (   0.000000   0.000000   1.000000 )  

     reciprocal axes: (cart. coord. in units 2 pi/alat)
               b(1) = (  1.000000  0.000000  0.000000 )  
               b(2) = (  0.000000  1.000000  0.000000 )  
               b(3) = (  0.000000  0.000000  1.000000 )  


     PseudoPot. # 1 for C  read from file:
     /home/cjw/pseudopotential/SSSP_1.1.2_PBE_efficiency/C.pbe-n-kjpaw_psl.1.0.0.UPF
     MD5 check sum: 5d2aebdfa2cae82b50a7e79e9516da0f
     Pseudo is Projector augmented-wave + core cor, Zval =  4.0
     Generated using "atomic" code by A. Dal Corso  v.5.1
     Shape of augmentation charge: PSQ
     Using radial grid of 1073 points,  4 beta functions with: 
                l(1) =   0
                l(2) =   0
                l(3) =   1
                l(4) =   1
     Q(r) pseudized with 0 coefficients 


     PseudoPot. # 2 for O  read from file:
     /home/cjw/pseudopotential/SSSP_1.1.2_PBE_efficiency/O.pbe-n-kjpaw_psl.0.1.UPF
     MD5 check sum: 0234752ac141de4415c5fc33072bef88
     Pseudo is Projector augmented-wave + core cor, Zval =  6.0
     Generated using "atomic" code by A. Dal Corso  v.5.0.99 svn rev. 10869
     Shape of augmentation charge: BESSEL
     Using radial grid of 1095 points,  4 beta functions with: 
                l(1) =   0
                l(2) =   0
                l(3) =   1
                l(4) =   1
     Q(r) pseudized with 0 coefficients 


     PseudoPot. # 3 for H  read from file:
     /home/cjw/pseudopotential/SSSP_1.1.2_PBE_efficiency/H.pbe-rrkjus_psl.1.0.0.UPF
     MD5 check sum: f52b6d4d1c606e5624b1dc7b2218f220
     Pseudo is Ultrasoft, Zval =  1.0
     Generated using "atomic" code by A. Dal Corso  v.5.1
     Using radial grid of  929 points,  2 beta functions with: 
                l(1) =   0
                l(2) =   0
     Q(r) pseudized with 0 coefficients 


     atomic species   valence    mass     pseudopotential
        C              4.00    12.01100     C ( 1.00)
        O              6.00    15.99900     O ( 1.00)
        H              1.00     1.00800     H ( 1.00)

     Starting magnetic structure 
     atomic species   magnetization
        C            0.500
        O            0.500
        H            0.500

     No symmetry found



   Cartesian axes

     site n.     atom                  positions (alat units)
         1           C   tau(   1) = (   0.5030050   0.5324215   0.5000000  )
         2           O   tau(   2) = (   0.5030050   0.4612745   0.5000000  )
         3           H   tau(   3) = (   0.4507118   0.5476913   0.5000000  )
         4           H   tau(   4) = (   0.5492882   0.4467791   0.5000000  )
         5           H   tau(   5) = (   0.5272188   0.5532208   0.5445886  )
         6           H   tau(   6) = (   0.5272188   0.5532208   0.4554114  )

     number of k points=     1  Gaussian smearing, width (Ry)=  0.0020
                       cart. coord. in units 2pi/alat
        k(    1) = (   0.0000000   0.0000000   0.0000000), wk =   1.0000000

     Dense  grid:  9587919 G-vectors     FFT dimensions: ( 270, 270, 270)

     Smooth grid:  3389267 G-vectors     FFT dimensions: ( 192, 192, 192)

     Estimated max dynamical RAM per process >     749.92 MB

     Estimated total dynamical RAM >      17.58 GB
     Generating pointlists ...
     new r_m :   0.0225 (alat units)  0.8493 (a.u.) for type    1
     new r_m :   0.0200 (alat units)  0.7561 (a.u.) for type    2
     new r_m :   0.0200 (alat units)  0.7561 (a.u.) for type    3

     Initial potential from superposition of free atoms

     starting charge      13.9999, renormalised to      14.0000

     negative rho (up, down):  1.138E-03 3.793E-04
     Starting wfcs are   12 randomized atomic wfcs
     Checking if some PAW data can be deallocated... 

     total cpu time spent up to now is       10.5 secs

     Self-consistent Calculation

     iteration #  1     ecut=    60.00 Ry     beta= 0.70
     Davidson diagonalization with overlap
     ethr =  1.00E-02,  avg # of iterations =  5.5

     negative rho (up, down):  1.498E-03 1.145E-03

     total cpu time spent up to now is       17.4 secs

     total energy              =     -64.58263400 Ry
     estimated scf accuracy    <       0.85618602 Ry

     total magnetization       =    -0.00 Bohr mag/cell
     absolute magnetization    =     0.45 Bohr mag/cell

     iteration #  2     ecut=    60.00 Ry     beta= 0.70
     Davidson diagonalization with overlap
     ethr =  6.12E-03,  avg # of iterations =  3.5

     negative rho (up, down):  1.330E-03 1.042E-03

     total cpu time spent up to now is       23.7 secs

     total energy              =     -64.73938567 Ry
     estimated scf accuracy    <       0.27353255 Ry

     total magnetization       =     0.00 Bohr mag/cell
     absolute magnetization    =     0.23 Bohr mag/cell

     iteration #  3     ecut=    60.00 Ry     beta= 0.70
     Davidson diagonalization with overlap
     ethr =  1.95E-03,  avg # of iterations =  2.0

     negative rho (up, down):  1.366E-03 1.221E-03

     total cpu time spent up to now is       30.5 secs

     total energy              =     -64.81211559 Ry
     estimated scf accuracy    <       0.02434687 Ry

     total magnetization       =     0.00 Bohr mag/cell
     absolute magnetization    =     0.14 Bohr mag/cell

     iteration #  4     ecut=    60.00 Ry     beta= 0.70
     Davidson diagonalization with overlap
     ethr =  1.74E-04,  avg # of iterations =  9.5

     negative rho (up, down):  1.358E-03 1.277E-03

     total cpu time spent up to now is       37.6 secs

     total energy              =     -64.81587882 Ry
     estimated scf accuracy    <       0.00218213 Ry

     total magnetization       =     0.00 Bohr mag/cell
     absolute magnetization    =     0.06 Bohr mag/cell

     iteration #  5     ecut=    60.00 Ry     beta= 0.70
     Davidson diagonalization with overlap
     c_bands:  3 eigenvalues not converged
     c_bands:  3 eigenvalues not converged
     ethr =  1.56E-05,  avg # of iterations = 20.0

     negative rho (up, down):  1.344E-03 1.308E-03

     total cpu time spent up to now is       46.4 secs

     total energy              =     -64.81629903 Ry
     estimated scf accuracy    <       0.00011145 Ry

     total magnetization       =    -0.00 Bohr mag/cell
     absolute magnetization    =     0.03 Bohr mag/cell

     iteration #  6     ecut=    60.00 Ry     beta= 0.70
     Davidson diagonalization with overlap
     c_bands:  2 eigenvalues not converged
     ethr =  7.96E-07,  avg # of iterations = 16.5

     negative rho (up, down):  1.336E-03 1.320E-03

     total cpu time spent up to now is       54.7 secs

     total energy              =     -64.81635070 Ry
     estimated scf accuracy    <       0.00001620 Ry

     total magnetization       =     0.00 Bohr mag/cell
     absolute magnetization    =     0.01 Bohr mag/cell

     iteration #  7     ecut=    60.00 Ry     beta= 0.70
     Davidson diagonalization with overlap
     ethr =  1.16E-07,  avg # of iterations =  3.5

     negative rho (up, down):  1.330E-03 1.324E-03

     total cpu time spent up to now is       61.2 secs

     total energy              =     -64.81635898 Ry
     estimated scf accuracy    <       0.00000195 Ry

     total magnetization       =     0.00 Bohr mag/cell
     absolute magnetization    =     0.01 Bohr mag/cell

     iteration #  8     ecut=    60.00 Ry     beta= 0.70
     Davidson diagonalization with overlap
     ethr =  1.39E-08,  avg # of iterations =  3.0

     negative rho (up, down):  1.328E-03 1.327E-03
 
     Magnetic moment per site  (integrated on atomic sphere of radius R)
     atom   1 (R=0.022)  charge=  0.8343  magn= -0.0000
     atom   2 (R=0.020)  charge=  1.9082  magn=  0.0004
     atom   3 (R=0.020)  charge=  0.3969  magn= -0.0000
     atom   4 (R=0.020)  charge=  0.4065  magn= -0.0001
     atom   5 (R=0.020)  charge=  0.3956  magn= -0.0000
     atom   6 (R=0.020)  charge=  0.3956  magn= -0.0000

     total cpu time spent up to now is       67.2 secs

     End of self-consistent calculation

 ------ SPIN UP ------------


          k = 0.0000 0.0000 0.0000 (423701 PWs)   bands (ev):

   -25.4501 -16.8164 -12.4748 -10.6149 -10.3177  -8.0127  -6.2735  -0.7047
    -0.1879  -0.0647   0.1261

 ------ SPIN DOWN ----------


          k = 0.0000 0.0000 0.0000 (423701 PWs)   bands (ev):

   -25.4488 -16.8173 -12.4754 -10.6157 -10.3180  -8.0125  -6.2727  -0.7058
    -0.1883  -0.0649   0.1177

     the Fermi energy is    -6.1319 ev

!    total energy              =     -64.81636031 Ry
     estimated scf accuracy    <       0.00000054 Ry
     smearing contrib. (-TS)   =      -0.00000000 Ry
     internal energy E=F+TS    =     -64.81636031 Ry

     The total energy is F=E-TS. E is the sum of the following terms:
     one-electron contribution =    -144.62075861 Ry
     hartree contribution      =      74.62179298 Ry
     xc contribution           =     -14.91258059 Ry
     ewald contribution        =      35.76809841 Ry
     one-center paw contrib.   =     -15.67291252 Ry

     total magnetization       =     0.00 Bohr mag/cell
     absolute magnetization    =     0.00 Bohr mag/cell

     convergence has been achieved in   8 iterations

     negative rho (up, down):  1.328E-03 1.327E-03

     Forces acting on atoms (cartesian axes, Ry/au):

     atom    1 type  1   force =    -0.00150739   -0.00099850   -0.00000370
     atom    2 type  2   force =     0.00488433   -0.00752807    0.00000012
     atom    3 type  3   force =    -0.00823109    0.00475315    0.00000077
     atom    4 type  3   force =    -0.00155953   -0.00306231    0.00000004
     atom    5 type  3   force =     0.00320772    0.00341781    0.00698248
     atom    6 type  3   force =     0.00320597    0.00341792   -0.00697971

     Total force =     0.018093     Total SCF correction =     0.000860

     BFGS Geometry Optimization
     Energy error            =      0.0E+00 Ry
     Gradient error          =      8.2E-03 Ry/Bohr

     number of scf cycles    =   1
     number of bfgs steps    =   0

     energy             new  =     -64.8163603147 Ry

     new trust radius        =       0.0095049032 bohr
     new conv_thr            =       0.0000010000 Ry


ATOMIC_POSITIONS (angstrom)
C            10.0593018213       10.6479016173        9.9999980418
O            10.0626841752        9.2215063179       10.0000000635
H             9.0098797971       10.9563412576       10.0000004085
H            10.9849392300        8.9339624942       10.0000000217
H            10.5460729504       11.0662256278       10.8954669670
H            10.5460720260       11.0662256852        9.1045344976



     Writing config-only to output data dir ./pwscf.save/
     NEW-OLD atomic charge density approx. for the potential

     negative rho (up, down):  1.324E-03 1.324E-03
     Generating pointlists ...

     total cpu time spent up to now is       78.2 secs

     Self-consistent Calculation

     iteration #  1     ecut=    60.00 Ry     beta= 0.70
     Davidson diagonalization with overlap
     ethr =  1.00E-06,  avg # of iterations =  4.0

     negative rho (up, down):  1.324E-03 1.324E-03

     total cpu time spent up to now is       85.5 secs

     total energy              =     -64.81652091 Ry
     estimated scf accuracy    <       0.00009714 Ry

     total magnetization       =     0.00 Bohr mag/cell
     absolute magnetization    =     0.00 Bohr mag/cell

     iteration #  2     ecut=    60.00 Ry     beta= 0.70
     Davidson diagonalization with overlap
     ethr =  6.94E-07,  avg # of iterations =  3.0

     negative rho (up, down):  1.325E-03 1.325E-03

     total cpu time spent up to now is       91.8 secs

     total energy              =     -64.81654793 Ry
     estimated scf accuracy    <       0.00002874 Ry

     total magnetization       =     0.00 Bohr mag/cell
     absolute magnetization    =     0.00 Bohr mag/cell

     iteration #  3     ecut=    60.00 Ry     beta= 0.70
     Davidson diagonalization with overlap
     ethr =  2.05E-07,  avg # of iterations =  2.0

     negative rho (up, down):  1.325E-03 1.325E-03
 
     Magnetic moment per site  (integrated on atomic sphere of radius R)
     atom   1 (R=0.022)  charge=  0.8316  magn= -0.0000
     atom   2 (R=0.020)  charge=  1.9080  magn=  0.0000
     atom   3 (R=0.020)  charge=  0.3945  magn= -0.0000
     atom   4 (R=0.020)  charge=  0.4100  magn= -0.0000
     atom   5 (R=0.020)  charge=  0.3928  magn= -0.0000
     atom   6 (R=0.020)  charge=  0.3928  magn=  0.0000

     total cpu time spent up to now is       98.2 secs

     End of self-consistent calculation

 ------ SPIN UP ------------


          k = 0.0000 0.0000 0.0000 (423701 PWs)   bands (ev):

   -25.4441 -16.8054 -12.4628 -10.5879 -10.3092  -8.0149  -6.2789  -0.7014
    -0.1900  -0.0680   0.1250

 ------ SPIN DOWN ----------


          k = 0.0000 0.0000 0.0000 (423701 PWs)   bands (ev):

   -25.4438 -16.8054 -12.4628 -10.5879 -10.3091  -8.0148  -6.2787  -0.7015
    -0.1901  -0.0680   0.1169

     the Fermi energy is    -6.1312 ev

!    total energy              =     -64.81655282 Ry
     estimated scf accuracy    <       0.00000043 Ry
     smearing contrib. (-TS)   =      -0.00000000 Ry
     internal energy E=F+TS    =     -64.81655282 Ry

     The total energy is F=E-TS. E is the sum of the following terms:
     one-electron contribution =    -144.41652715 Ry
     hartree contribution      =      74.51622465 Ry
     xc contribution           =     -14.90226475 Ry
     ewald contribution        =      35.65863964 Ry
     one-center paw contrib.   =     -15.67262520 Ry

     total magnetization       =    -0.00 Bohr mag/cell
     absolute magnetization    =     0.00 Bohr mag/cell

     convergence has been achieved in   3 iterations

     negative rho (up, down):  1.325E-03 1.325E-03

     Forces acting on atoms (cartesian axes, Ry/au):

     atom    1 type  1   force =    -0.00007533    0.00085145    0.00001117
     atom    2 type  2   force =    -0.00358037    0.00042902   -0.00000026
     atom    3 type  3   force =    -0.00285386    0.00200331   -0.00000046
     atom    4 type  3   force =     0.00588387   -0.00482012   -0.00000060
     atom    5 type  3   force =     0.00030943    0.00076548    0.00181568
     atom    6 type  3   force =     0.00031626    0.00077087   -0.00182552

     Total force =     0.009579     Total SCF correction =     0.001010
     SCF correction compared to forces is large: reduce conv_thr to get better values
     Energy error            =      1.9E-04 Ry
     Gradient error          =      5.9E-03 Ry/Bohr

     number of scf cycles    =   2
     number of bfgs steps    =   1

     energy             old  =     -64.8163603147 Ry
     energy             new  =     -64.8165528190 Ry

     CASE: energy            _new < energy            _old

     new trust radius        =       0.0093119350 bohr
     new conv_thr            =       0.0000000193 Ry


ATOMIC_POSITIONS (angstrom)
C            10.0589694605       10.6482440545       10.0000043137
O            10.0613739904        9.2203490840        9.9999999227
H             9.0065404126       10.9584914042       10.0000002653
H            10.9883165571        8.9303742450        9.9999996542
H            10.5468732844       11.0673503846       10.8979219954
H            10.5468762950       11.0673538278        9.1020738487



     Writing config-only to output data dir ./pwscf.save/
     NEW-OLD atomic charge density approx. for the potential

     negative rho (up, down):  1.324E-03 1.324E-03
     Generating pointlists ...

     total cpu time spent up to now is      108.8 secs

     Self-consistent Calculation

     iteration #  1     ecut=    60.00 Ry     beta= 0.70
     Davidson diagonalization with overlap
     ethr =  1.00E-06,  avg # of iterations =  3.0

     negative rho (up, down):  1.320E-03 1.320E-03

     total cpu time spent up to now is      115.2 secs

     total energy              =     -64.81658093 Ry
     estimated scf accuracy    <       0.00005694 Ry

     total magnetization       =     0.00 Bohr mag/cell
     absolute magnetization    =     0.00 Bohr mag/cell

     iteration #  2     ecut=    60.00 Ry     beta= 0.70
     Davidson diagonalization with overlap
     ethr =  4.07E-07,  avg # of iterations =  2.0

     negative rho (up, down):  1.322E-03 1.322E-03

     total cpu time spent up to now is      121.5 secs

     total energy              =     -64.81659472 Ry
     estimated scf accuracy    <       0.00001789 Ry

     total magnetization       =    -0.00 Bohr mag/cell
     absolute magnetization    =     0.00 Bohr mag/cell

     iteration #  3     ecut=    60.00 Ry     beta= 0.70
     Davidson diagonalization with overlap
     ethr =  1.28E-07,  avg # of iterations =  2.0

     negative rho (up, down):  1.321E-03 1.321E-03

     total cpu time spent up to now is      127.7 secs

     total energy              =     -64.81659836 Ry
     estimated scf accuracy    <       0.00000038 Ry

     total magnetization       =    -0.00 Bohr mag/cell
     absolute magnetization    =     0.00 Bohr mag/cell

     iteration #  4     ecut=    60.00 Ry     beta= 0.70
     Davidson diagonalization with overlap
     ethr =  2.72E-09,  avg # of iterations =  2.0

     negative rho (up, down):  1.321E-03 1.321E-03

     total cpu time spent up to now is      134.0 secs

     total energy              =     -64.81659848 Ry
     estimated scf accuracy    <       0.00000009 Ry

     total magnetization       =     0.00 Bohr mag/cell
     absolute magnetization    =     0.00 Bohr mag/cell

     iteration #  5     ecut=    60.00 Ry     beta= 0.70
     Davidson diagonalization with overlap
     ethr =  6.63E-10,  avg # of iterations =  2.0

     negative rho (up, down):  1.321E-03 1.321E-03
 
     Magnetic moment per site  (integrated on atomic sphere of radius R)
     atom   1 (R=0.022)  charge=  0.8295  magn= -0.0000
     atom   2 (R=0.020)  charge=  1.9068  magn=  0.0000
     atom   3 (R=0.020)  charge=  0.3928  magn=  0.0000
     atom   4 (R=0.020)  charge=  0.4051  magn= -0.0000
     atom   5 (R=0.020)  charge=  0.3913  magn=  0.0000
     atom   6 (R=0.020)  charge=  0.3913  magn=  0.0000

     total cpu time spent up to now is      139.8 secs

     End of self-consistent calculation

 ------ SPIN UP ------------


          k = 0.0000 0.0000 0.0000 (423701 PWs)   bands (ev):

   -25.4069 -16.7774 -12.4385 -10.5724 -10.2938  -8.0088  -6.2756  -0.7109
    -0.1947  -0.0693   0.1246

 ------ SPIN DOWN ----------


          k = 0.0000 0.0000 0.0000 (423701 PWs)   bands (ev):

   -25.4069 -16.7774 -12.4385 -10.5724 -10.2938  -8.0088  -6.2756  -0.7109
    -0.1947  -0.0693   0.1167

     the Fermi energy is    -6.1222 ev

!    total energy              =     -64.81659849 Ry
     estimated scf accuracy    <          6.5E-09 Ry
     smearing contrib. (-TS)   =      -0.00000000 Ry
     internal energy E=F+TS    =     -64.81659849 Ry

     The total energy is F=E-TS. E is the sum of the following terms:
     one-electron contribution =    -144.21146418 Ry
     hartree contribution      =      74.41349101 Ry
     xc contribution           =     -14.88935878 Ry
     ewald contribution        =      35.54358008 Ry
     one-center paw contrib.   =     -15.67284662 Ry

     total magnetization       =    -0.00 Bohr mag/cell
     absolute magnetization    =     0.00 Bohr mag/cell

     convergence has been achieved in   5 iterations

     negative rho (up, down):  1.321E-03 1.321E-03

     Forces acting on atoms (cartesian axes, Ry/au):

     atom    1 type  1   force =    -0.00093013    0.00258237   -0.00001341
     atom    2 type  2   force =     0.00540343   -0.00104169    0.00000102
     atom    3 type  3   force =     0.00103390    0.00067795    0.00000039
     atom    4 type  3   force =    -0.00340158   -0.00143890   -0.00000020
     atom    5 type  3   force =    -0.00104980   -0.00038755   -0.00090284
     atom    6 type  3   force =    -0.00105582   -0.00039219    0.00091504

     Total force =     0.007560     Total SCF correction =     0.000091
     Energy error            =      4.6E-05 Ry
     Gradient error          =      5.4E-03 Ry/Bohr

     number of scf cycles    =   3
     number of bfgs steps    =   2

     energy             old  =     -64.8165528190 Ry
     energy             new  =     -64.8165984854 Ry

     CASE: energy            _new < energy            _old

     new trust radius        =       0.0030902444 bohr
     new conv_thr            =       0.0000000100 Ry


ATOMIC_POSITIONS (angstrom)
C            10.0586001394       10.6494317436       10.0000005278
O            10.0629882757        9.2200878443       10.0000002970
H             9.0066569355       10.9589944961       10.0000003458
H            10.9878067044        8.9291303172        9.9999994854
H            10.5464481832       11.0672581314       10.8977248524
H            10.5464497618       11.0672604675        9.1022744916



     Writing config-only to output data dir ./pwscf.save/
     NEW-OLD atomic charge density approx. for the potential

     negative rho (up, down):  1.320E-03 1.320E-03
     Generating pointlists ...

     total cpu time spent up to now is      150.2 secs

     Self-consistent Calculation

     iteration #  1     ecut=    60.00 Ry     beta= 0.70
     Davidson diagonalization with overlap
     ethr =  1.00E-06,  avg # of iterations =  3.0

     Threshold (ethr) on eigenvalues was too large:
     Diagonalizing with lowered threshold

     Davidson diagonalization with overlap
     ethr =  2.50E-08,  avg # of iterations =  2.0

     negative rho (up, down):  1.322E-03 1.322E-03

     total cpu time spent up to now is      159.9 secs

     total energy              =     -64.81661918 Ry
     estimated scf accuracy    <       0.00000384 Ry

     total magnetization       =     0.00 Bohr mag/cell
     absolute magnetization    =     0.00 Bohr mag/cell

     iteration #  2     ecut=    60.00 Ry     beta= 0.70
     Davidson diagonalization with overlap
     ethr =  2.75E-08,  avg # of iterations =  2.0

     negative rho (up, down):  1.321E-03 1.321E-03

     total cpu time spent up to now is      166.1 secs

     total energy              =     -64.81661984 Ry
     estimated scf accuracy    <       0.00000113 Ry

     total magnetization       =    -0.00 Bohr mag/cell
     absolute magnetization    =     0.00 Bohr mag/cell

     iteration #  3     ecut=    60.00 Ry     beta= 0.70
     Davidson diagonalization with overlap
     ethr =  8.09E-09,  avg # of iterations =  2.0

     negative rho (up, down):  1.322E-03 1.322E-03

     total cpu time spent up to now is      172.2 secs

     total energy              =     -64.81662015 Ry
     estimated scf accuracy    <       0.00000009 Ry

     total magnetization       =     0.00 Bohr mag/cell
     absolute magnetization    =     0.00 Bohr mag/cell

     iteration #  4     ecut=    60.00 Ry     beta= 0.70
     Davidson diagonalization with overlap
     ethr =  6.11E-10,  avg # of iterations =  2.0

     negative rho (up, down):  1.322E-03 1.322E-03
 
     Magnetic moment per site  (integrated on atomic sphere of radius R)
     atom   1 (R=0.022)  charge=  0.8295  magn= -0.0000
     atom   2 (R=0.020)  charge=  1.9069  magn=  0.0000
     atom   3 (R=0.020)  charge=  0.3930  magn=  0.0000
     atom   4 (R=0.020)  charge=  0.4066  magn= -0.0000
     atom   5 (R=0.020)  charge=  0.3916  magn= -0.0000
     atom   6 (R=0.020)  charge=  0.3916  magn=  0.0000

     total cpu time spent up to now is      178.0 secs

     End of self-consistent calculation

 ------ SPIN UP ------------


          k = 0.0000 0.0000 0.0000 (423701 PWs)   bands (ev):

   -25.3996 -16.7879 -12.4358 -10.5738 -10.2959  -8.0061  -6.2758  -0.7074
    -0.1943  -0.0694   0.1245

 ------ SPIN DOWN ----------


          k = 0.0000 0.0000 0.0000 (423701 PWs)   bands (ev):

   -25.3996 -16.7879 -12.4358 -10.5738 -10.2959  -8.0061  -6.2758  -0.7074
    -0.1943  -0.0694   0.1168

     the Fermi energy is    -6.1205 ev

!    total energy              =     -64.81662016 Ry
     estimated scf accuracy    <          7.1E-09 Ry
     smearing contrib. (-TS)   =      -0.00000000 Ry
     internal energy E=F+TS    =     -64.81662016 Ry

     The total energy is F=E-TS. E is the sum of the following terms:
     one-electron contribution =    -144.20561986 Ry
     hartree contribution      =      74.41185275 Ry
     xc contribution           =     -14.89100883 Ry
     ewald contribution        =      35.54091972 Ry
     one-center paw contrib.   =     -15.67276394 Ry

     total magnetization       =    -0.00 Bohr mag/cell
     absolute magnetization    =     0.00 Bohr mag/cell

     convergence has been achieved in   4 iterations

     negative rho (up, down):  1.322E-03 1.322E-03

     Forces acting on atoms (cartesian axes, Ry/au):

     atom    1 type  1   force =     0.00016592    0.00000146   -0.00000190
     atom    2 type  2   force =     0.00131847    0.00100015   -0.00000105
     atom    3 type  3   force =     0.00031505    0.00057036    0.00000022
     atom    4 type  3   force =    -0.00022532   -0.00169782   -0.00000000
     atom    5 type  3   force =    -0.00078643    0.00006352   -0.00044766
     atom    6 type  3   force =    -0.00078769    0.00006232    0.00045038

     Total force =     0.002788     Total SCF correction =     0.000094
     Energy error            =      2.2E-05 Ry
     Gradient error          =      1.7E-03 Ry/Bohr

     number of scf cycles    =   4
     number of bfgs steps    =   3

     energy             old  =     -64.8165984854 Ry
     energy             new  =     -64.8166201583 Ry

     CASE: energy            _new < energy            _old

     new trust radius        =       0.0035979509 bohr
     new conv_thr            =       0.0000000100 Ry


ATOMIC_POSITIONS (angstrom)
C            10.0585932836       10.6497674408        9.9999986079
O            10.0643155392        9.2206381523        9.9999995997
H             9.0066126935       10.9597508858       10.0000005230
H            10.9877713891        8.9272266911        9.9999994095
H            10.5458282619       11.0673892034       10.8975708338
H            10.5458288328       11.0673906264        9.1024310262



     Writing config-only to output data dir ./pwscf.save/
     NEW-OLD atomic charge density approx. for the potential

     negative rho (up, down):  1.321E-03 1.321E-03
     Generating pointlists ...

     total cpu time spent up to now is      188.2 secs

     Self-consistent Calculation

     iteration #  1     ecut=    60.00 Ry     beta= 0.70
     Davidson diagonalization with overlap
     ethr =  1.00E-06,  avg # of iterations =  2.0

     Threshold (ethr) on eigenvalues was too large:
     Diagonalizing with lowered threshold

     Davidson diagonalization with overlap
     ethr =  1.09E-08,  avg # of iterations =  3.0

     negative rho (up, down):  1.322E-03 1.322E-03

     total cpu time spent up to now is      197.9 secs

     total energy              =     -64.81662928 Ry
     estimated scf accuracy    <       0.00000146 Ry

     total magnetization       =     0.00 Bohr mag/cell
     absolute magnetization    =     0.00 Bohr mag/cell

     iteration #  2     ecut=    60.00 Ry     beta= 0.70
     Davidson diagonalization with overlap
     ethr =  1.05E-08,  avg # of iterations =  2.0

     negative rho (up, down):  1.322E-03 1.322E-03

     total cpu time spent up to now is      204.1 secs

     total energy              =     -64.81662946 Ry
     estimated scf accuracy    <       0.00000024 Ry

     total magnetization       =    -0.00 Bohr mag/cell
     absolute magnetization    =     0.00 Bohr mag/cell

     iteration #  3     ecut=    60.00 Ry     beta= 0.70
     Davidson diagonalization with overlap
     ethr =  1.69E-09,  avg # of iterations =  2.0

     negative rho (up, down):  1.322E-03 1.322E-03

     total cpu time spent up to now is      210.3 secs

     total energy              =     -64.81662953 Ry
     estimated scf accuracy    <       0.00000005 Ry

     total magnetization       =    -0.00 Bohr mag/cell
     absolute magnetization    =     0.00 Bohr mag/cell

     iteration #  4     ecut=    60.00 Ry     beta= 0.70
     Davidson diagonalization with overlap
     ethr =  3.29E-10,  avg # of iterations =  2.0

     negative rho (up, down):  1.322E-03 1.322E-03
 
     Magnetic moment per site  (integrated on atomic sphere of radius R)
     atom   1 (R=0.022)  charge=  0.8296  magn= -0.0000
     atom   2 (R=0.020)  charge=  1.9070  magn=  0.0000
     atom   3 (R=0.020)  charge=  0.3930  magn=  0.0000
     atom   4 (R=0.020)  charge=  0.4070  magn= -0.0000
     atom   5 (R=0.020)  charge=  0.3919  magn=  0.0000
     atom   6 (R=0.020)  charge=  0.3919  magn= -0.0000

     total cpu time spent up to now is      216.1 secs

     End of self-consistent calculation

 ------ SPIN UP ------------


          k = 0.0000 0.0000 0.0000 (423701 PWs)   bands (ev):

   -25.3994 -16.7934 -12.4386 -10.5769 -10.2988  -7.9972  -6.2750  -0.7058
    -0.1943  -0.0694   0.1244

 ------ SPIN DOWN ----------


          k = 0.0000 0.0000 0.0000 (423701 PWs)   bands (ev):

   -25.3994 -16.7934 -12.4386 -10.5769 -10.2988  -7.9972  -6.2750  -0.7058
    -0.1943  -0.0694   0.1168

     the Fermi energy is    -6.1205 ev

!    total energy              =     -64.81662953 Ry
     estimated scf accuracy    <          9.3E-10 Ry
     smearing contrib. (-TS)   =      -0.00000000 Ry
     internal energy E=F+TS    =     -64.81662953 Ry

     The total energy is F=E-TS. E is the sum of the following terms:
     one-electron contribution =    -144.21943437 Ry
     hartree contribution      =      74.41895243 Ry
     xc contribution           =     -14.89210670 Ry
     ewald contribution        =      35.54859016 Ry
     one-center paw contrib.   =     -15.67263106 Ry

     total magnetization       =    -0.00 Bohr mag/cell
     absolute magnetization    =     0.00 Bohr mag/cell

     convergence has been achieved in   4 iterations

     negative rho (up, down):  1.322E-03 1.322E-03

     Forces acting on atoms (cartesian axes, Ry/au):

     atom    1 type  1   force =     0.00024838   -0.00035846    0.00000370
     atom    2 type  2   force =    -0.00055465    0.00071097   -0.00000041
     atom    3 type  3   force =     0.00039724    0.00017310   -0.00000040
     atom    4 type  3   force =     0.00085839   -0.00129012   -0.00000005
     atom    5 type  3   force =    -0.00047530    0.00038189   -0.00008427
     atom    6 type  3   force =    -0.00047406    0.00038262    0.00008142

     Total force =     0.002085     Total SCF correction =     0.000029
     Energy error            =      9.4E-06 Ry
     Gradient error          =      1.3E-03 Ry/Bohr

     number of scf cycles    =   5
     number of bfgs steps    =   4

     energy             old  =     -64.8166201583 Ry
     energy             new  =     -64.8166295350 Ry

     CASE: energy            _new < energy            _old

     new trust radius        =       0.0042601873 bohr
     new conv_thr            =       0.0000000100 Ry


ATOMIC_POSITIONS (angstrom)
C            10.0586070186       10.6499840364        9.9999992693
O            10.0651796646        9.2210512185        9.9999991746
H             9.0067694519       10.9604693394       10.0000003078
H            10.9880967662        8.9249959016        9.9999992905
H            10.5451482919       11.0678306618       10.8975718264
H            10.5451488068       11.0678318423        9.1024301314



     Writing config-only to output data dir ./pwscf.save/
     NEW-OLD atomic charge density approx. for the potential

     negative rho (up, down):  1.322E-03 1.322E-03
     Generating pointlists ...

     total cpu time spent up to now is      226.6 secs

     Self-consistent Calculation

     iteration #  1     ecut=    60.00 Ry     beta= 0.70
     Davidson diagonalization with overlap
     ethr =  1.00E-06,  avg # of iterations =  2.0

     Threshold (ethr) on eigenvalues was too large:
     Diagonalizing with lowered threshold

     Davidson diagonalization with overlap
     ethr =  5.38E-09,  avg # of iterations =  4.0

     negative rho (up, down):  1.322E-03 1.322E-03

     total cpu time spent up to now is      236.4 secs

     total energy              =     -64.81663440 Ry
     estimated scf accuracy    <       0.00000083 Ry

     total magnetization       =     0.00 Bohr mag/cell
     absolute magnetization    =     0.00 Bohr mag/cell

     iteration #  2     ecut=    60.00 Ry     beta= 0.70
     Davidson diagonalization with overlap
     ethr =  5.95E-09,  avg # of iterations =  2.0

     negative rho (up, down):  1.323E-03 1.323E-03

     total cpu time spent up to now is      242.5 secs

     total energy              =     -64.81663447 Ry
     estimated scf accuracy    <       0.00000006 Ry

     total magnetization       =    -0.00 Bohr mag/cell
     absolute magnetization    =     0.00 Bohr mag/cell

     iteration #  3     ecut=    60.00 Ry     beta= 0.70
     Davidson diagonalization with overlap
     ethr =  4.60E-10,  avg # of iterations =  2.0

     negative rho (up, down):  1.323E-03 1.323E-03
 
     Magnetic moment per site  (integrated on atomic sphere of radius R)
     atom   1 (R=0.022)  charge=  0.8297  magn=  0.0000
     atom   2 (R=0.020)  charge=  1.9070  magn=  0.0000
     atom   3 (R=0.020)  charge=  0.3930  magn= -0.0000
     atom   4 (R=0.020)  charge=  0.4066  magn=  0.0000
     atom   5 (R=0.020)  charge=  0.3920  magn= -0.0000
     atom   6 (R=0.020)  charge=  0.3920  magn=  0.0000

     total cpu time spent up to now is      248.3 secs

     End of self-consistent calculation

 ------ SPIN UP ------------


          k = 0.0000 0.0000 0.0000 (423701 PWs)   bands (ev):

   -25.3954 -16.7962 -12.4391 -10.5781 -10.3008  -7.9889  -6.2741  -0.7056
    -0.1948  -0.0695   0.1243

 ------ SPIN DOWN ----------


          k = 0.0000 0.0000 0.0000 (423701 PWs)   bands (ev):

   -25.3954 -16.7962 -12.4391 -10.5781 -10.3008  -7.9889  -6.2741  -0.7056
    -0.1948  -0.0695   0.1169

     the Fermi energy is    -6.1196 ev

!    total energy              =     -64.81663448 Ry
     estimated scf accuracy    <          7.8E-09 Ry
     smearing contrib. (-TS)   =      -0.00000000 Ry
     internal energy E=F+TS    =     -64.81663448 Ry

     The total energy is F=E-TS. E is the sum of the following terms:
     one-electron contribution =    -144.21710280 Ry
     hartree contribution      =      74.41792947 Ry
     xc contribution           =     -14.89209275 Ry
     ewald contribution        =      35.54718959 Ry
     one-center paw contrib.   =     -15.67255798 Ry

     total magnetization       =    -0.00 Bohr mag/cell
     absolute magnetization    =     0.00 Bohr mag/cell

     convergence has been achieved in   3 iterations

     negative rho (up, down):  1.323E-03 1.323E-03

     Forces acting on atoms (cartesian axes, Ry/au):

     atom    1 type  1   force =     0.00053543   -0.00044950    0.00000205
     atom    2 type  2   force =    -0.00074974    0.00009949    0.00000013
     atom    3 type  3   force =     0.00026617   -0.00016854   -0.00000022
     atom    4 type  3   force =     0.00042681   -0.00046942   -0.00000002
     atom    5 type  3   force =    -0.00023977    0.00049372    0.00006573
     atom    6 type  3   force =    -0.00023890    0.00049425   -0.00006767

     Total force =     0.001474     Total SCF correction =     0.000076
     Energy error            =      4.9E-06 Ry
     Gradient error          =      7.5E-04 Ry/Bohr

     bfgs converged in   6 scf cycles and   5 bfgs steps
     (criteria: energy <  1.0E-04 Ry, force <  1.0E-03 Ry/Bohr)

     End of BFGS Geometry Optimization

     Final energy             =     -64.8166344779 Ry

     File ./pwscf.bfgs deleted, as requested
Begin final coordinates

ATOMIC_POSITIONS (angstrom)
C            10.0586070186       10.6499840364        9.9999992693
O            10.0651796646        9.2210512185        9.9999991746
H             9.0067694519       10.9604693394       10.0000003078
H            10.9880967662        8.9249959016        9.9999992905
H            10.5451482919       11.0678306618       10.8975718264
H            10.5451488068       11.0678318423        9.1024301314
End final coordinates



     Writing all to output data dir ./pwscf.save/
 
     init_run     :      9.19s CPU     10.33s WALL (       1 calls)
     electrons    :    160.39s CPU    195.43s WALL (       6 calls)
     update_pot   :     17.00s CPU     18.12s WALL (       5 calls)
     forces       :     18.58s CPU     22.38s WALL (       6 calls)

     Called by init_run:
     wfcinit      :      0.37s CPU      0.40s WALL (       1 calls)
     potinit      :      1.73s CPU      2.21s WALL (       1 calls)
     hinit0       :      0.92s CPU      1.00s WALL (       1 calls)

     Called by electrons:
     c_bands      :     35.05s CPU     36.93s WALL (      30 calls)
     sum_band     :     60.86s CPU     72.74s WALL (      30 calls)
     v_of_rho     :     40.39s CPU     45.90s WALL (      33 calls)
     newd         :     20.30s CPU     31.14s WALL (      33 calls)
     PAW_pot      :      1.07s CPU      1.09s WALL (      38 calls)
     mix_rho      :      6.48s CPU      7.12s WALL (      30 calls)

     Called by c_bands:
     init_us_2    :      0.60s CPU      0.62s WALL (     144 calls)
     init_us_2:cp :      0.60s CPU      0.62s WALL (     144 calls)
     cegterg      :     32.46s CPU     34.29s WALL (      60 calls)

     Called by *egterg:
     cdiaghg      :      0.09s CPU      0.09s WALL (     275 calls)
     h_psi        :     27.08s CPU     28.80s WALL (     293 calls)
     s_psi        :      0.82s CPU      0.84s WALL (     293 calls)
     g_psi        :      0.11s CPU      0.11s WALL (     231 calls)

     Called by h_psi:
     h_psi:calbec :      0.73s CPU      0.74s WALL (     293 calls)
     vloc_psi     :     25.35s CPU     27.03s WALL (     293 calls)
     add_vuspsi   :      0.79s CPU      0.81s WALL (     293 calls)

     General routines
     calbec       :      1.12s CPU      1.13s WALL (     411 calls)
     fft          :     43.77s CPU     48.56s WALL (     914 calls)
     ffts         :      1.80s CPU      2.02s WALL (     126 calls)
     fftw         :     23.85s CPU     25.72s WALL (    4596 calls)
     interpolate  :      3.69s CPU      4.10s WALL (      66 calls)
 
     Parallel routines
 
     PWSCF        :   3m31.49s CPU   4m16.32s WALL

 
   This run was terminated on:   9:19:36  31May2023            

=------------------------------------------------------------------------------=
   JOB DONE.
=------------------------------------------------------------------------------=
