  66  66   0   0
  0.5189179E+02  0.1121440E-08  0.1121440E-08  0.3144560E-08  0.5000000E-15
  1.000000000000000E-004
  CAR 
 Pt                                      
      5.91239043    -26.08479226  301     -0.90562969      1.00000000
    -26.085  0.0000E+00  0.0000E+00
    -25.978  0.0000E+00  0.0000E+00
    -25.871  0.0000E+00  0.0000E+00
    -25.765  0.0000E+00  0.0000E+00
    -25.658  0.0000E+00  0.0000E+00
    -25.552  0.0000E+00  0.0000E+00
    -25.445 -0.3281E-29 -0.3499E-30
    -25.338 -0.3217E-22 -0.3431E-23
    -25.232 -0.3168E-16 -0.3379E-17
    -25.125 -0.2981E-11 -0.3179E-12
    -25.018 -0.2791E-07 -0.2977E-08
    -24.912 -0.2395E-04 -0.2557E-05
    -24.805 -0.1530E-02 -0.1657E-03
    -24.698  0.5996E-02  0.4737E-03
    -24.592  0.7073E-01  0.8017E-02
    -24.485  0.2137E-01  0.1030E-01
    -24.378 -0.2683E-02  0.1001E-01
    -24.272 -0.9906E-04  0.1000E-01
    -24.165 -0.2274E-06  0.1000E-01
    -24.058 -0.4647E-10  0.1000E-01
    -23.952 -0.9160E-15  0.1000E-01
    -23.845  0.0000E+00  0.1000E-01
    -23.738  0.0000E+00  0.1000E-01
    -23.632  0.0000E+00  0.1000E-01
    -23.525  0.0000E+00  0.1000E-01
    -23.418  0.0000E+00  0.1000E-01
    -23.312  0.0000E+00  0.1000E-01
    -23.205  0.0000E+00  0.1000E-01
    -23.098  0.0000E+00  0.1000E-01
    -22.992  0.0000E+00  0.1000E-01
    -22.885  0.0000E+00  0.1000E-01
    -22.778  0.0000E+00  0.1000E-01
    -22.672  0.0000E+00  0.1000E-01
    -22.565  0.0000E+00  0.1000E-01
    -22.458  0.0000E+00  0.1000E-01
    -22.352  0.0000E+00  0.1000E-01
    -22.245  0.0000E+00  0.1000E-01
    -22.138  0.0000E+00  0.1000E-01
    -22.032  0.0000E+00  0.1000E-01
    -21.925  0.0000E+00  0.1000E-01
    -21.819  0.0000E+00  0.1000E-01
    -21.712  0.0000E+00  0.1000E-01
    -21.605  0.0000E+00  0.1000E-01
    -21.499  0.0000E+00  0.1000E-01
    -21.392  0.0000E+00  0.1000E-01
    -21.285  0.0000E+00  0.1000E-01
    -21.179  0.0000E+00  0.1000E-01
    -21.072  0.0000E+00  0.1000E-01
    -20.965  0.0000E+00  0.1000E-01
    -20.859  0.0000E+00  0.1000E-01
    -20.752  0.0000E+00  0.1000E-01
    -20.645  0.0000E+00  0.1000E-01
    -20.539  0.0000E+00  0.1000E-01
    -20.432  0.0000E+00  0.1000E-01
    -20.325  0.0000E+00  0.1000E-01
    -20.219  0.0000E+00  0.1000E-01
    -20.112  0.0000E+00  0.1000E-01
    -20.005  0.0000E+00  0.1000E-01
    -19.899  0.0000E+00  0.1000E-01
    -19.792  0.0000E+00  0.1000E-01
    -19.685  0.0000E+00  0.1000E-01
    -19.579  0.0000E+00  0.1000E-01
    -19.472  0.0000E+00  0.1000E-01
    -19.365  0.0000E+00  0.1000E-01
    -19.259  0.0000E+00  0.1000E-01
    -19.152  0.0000E+00  0.1000E-01
    -19.045  0.0000E+00  0.1000E-01
    -18.939  0.0000E+00  0.1000E-01
    -18.832  0.0000E+00  0.1000E-01
    -18.725  0.0000E+00  0.1000E-01
    -18.619  0.0000E+00  0.1000E-01
    -18.512  0.0000E+00  0.1000E-01
    -18.405  0.0000E+00  0.1000E-01
    -18.299  0.0000E+00  0.1000E-01
    -18.192  0.0000E+00  0.1000E-01
    -18.085  0.0000E+00  0.1000E-01
    -17.979  0.0000E+00  0.1000E-01
    -17.872  0.0000E+00  0.1000E-01
    -17.766  0.0000E+00  0.1000E-01
    -17.659  0.0000E+00  0.1000E-01
    -17.552  0.0000E+00  0.1000E-01
    -17.446  0.0000E+00  0.1000E-01
    -17.339  0.0000E+00  0.1000E-01
    -17.232  0.0000E+00  0.1000E-01
    -17.126  0.0000E+00  0.1000E-01
    -17.019  0.0000E+00  0.1000E-01
    -16.912  0.0000E+00  0.1000E-01
    -16.806  0.0000E+00  0.1000E-01
    -16.699  0.0000E+00  0.1000E-01
    -16.592  0.0000E+00  0.1000E-01
    -16.486  0.0000E+00  0.1000E-01
    -16.379  0.0000E+00  0.1000E-01
    -16.272  0.0000E+00  0.1000E-01
    -16.166  0.0000E+00  0.1000E-01
    -16.059  0.0000E+00  0.1000E-01
    -15.952  0.0000E+00  0.1000E-01
    -15.846  0.0000E+00  0.1000E-01
    -15.739  0.0000E+00  0.1000E-01
    -15.632  0.0000E+00  0.1000E-01
    -15.526  0.0000E+00  0.1000E-01
    -15.419  0.0000E+00  0.1000E-01
    -15.312  0.0000E+00  0.1000E-01
    -15.206  0.0000E+00  0.1000E-01
    -15.099  0.0000E+00  0.1000E-01
    -14.992  0.0000E+00  0.1000E-01
    -14.886  0.0000E+00  0.1000E-01
    -14.779  0.0000E+00  0.1000E-01
    -14.672  0.0000E+00  0.1000E-01
    -14.566  0.0000E+00  0.1000E-01
    -14.459  0.0000E+00  0.1000E-01
    -14.352  0.0000E+00  0.1000E-01
    -14.246  0.0000E+00  0.1000E-01
    -14.139  0.0000E+00  0.1000E-01
    -14.033  0.0000E+00  0.1000E-01
    -13.926  0.0000E+00  0.1000E-01
    -13.819  0.0000E+00  0.1000E-01
    -13.713  0.0000E+00  0.1000E-01
    -13.606  0.0000E+00  0.1000E-01
    -13.499  0.0000E+00  0.1000E-01
    -13.393  0.0000E+00  0.1000E-01
    -13.286  0.0000E+00  0.1000E-01
    -13.179  0.0000E+00  0.1000E-01
    -13.073  0.0000E+00  0.1000E-01
    -12.966  0.0000E+00  0.1000E-01
    -12.859  0.0000E+00  0.1000E-01
    -12.753  0.0000E+00  0.1000E-01
    -12.646  0.0000E+00  0.1000E-01
    -12.539  0.0000E+00  0.1000E-01
    -12.433  0.0000E+00  0.1000E-01
    -12.326  0.0000E+00  0.1000E-01
    -12.219  0.0000E+00  0.1000E-01
    -12.113  0.0000E+00  0.1000E-01
    -12.006  0.0000E+00  0.1000E-01
    -11.899 -0.2523E-30  0.1000E-01
    -11.793 -0.3462E-23  0.1000E-01
    -11.686 -0.4779E-17  0.1000E-01
    -11.579 -0.6334E-12  0.1000E-01
    -11.473 -0.8382E-08  0.1000E-01
    -11.366 -0.1030E-04  0.9999E-02
    -11.259 -0.9982E-03  0.9892E-02
    -11.153  0.1096E-02  0.1001E-01
    -11.046  0.6442E-01  0.1688E-01
    -10.939  0.3251E-01  0.2035E-01
    -10.833 -0.3061E-02  0.2002E-01
    -10.726 -0.1963E-03  0.2000E-01
    -10.619 -0.6553E-06  0.2000E-01
    -10.513 -0.8627E-07  0.2000E-01
    -10.406 -0.1963E-04  0.2000E-01
    -10.300 -0.2300E-03  0.1997E-01
    -10.193  0.1531E-02  0.2014E-01
    -10.086  0.1254E-01  0.2147E-01
     -9.980  0.2557E-01  0.2420E-01
     -9.873  0.2490E-02  0.2447E-01
     -9.766  0.2492E-01  0.2713E-01
     -9.660  0.3118E-01  0.3045E-01
     -9.553  0.1425E-01  0.3197E-01
     -9.446 -0.2877E-02  0.3166E-01
     -9.340  0.1991E-01  0.3379E-01
     -9.233  0.4863E-01  0.3897E-01
     -9.126  0.1183E-01  0.4024E-01
     -9.020  0.2524E-01  0.4293E-01
     -8.913  0.2249E-02  0.4317E-01
     -8.806  0.1221E-01  0.4447E-01
     -8.700  0.7261E-01  0.5221E-01
     -8.593  0.6364E-01  0.5900E-01
     -8.486  0.4116E-01  0.6339E-01
     -8.380  0.8577E-01  0.7254E-01
     -8.273  0.5786E-01  0.7871E-01
     -8.166  0.8270E-02  0.7959E-01
     -8.060  0.6035E-01  0.8603E-01
     -7.953  0.1272E+00  0.9960E-01
     -7.846  0.5346E-01  0.1053E+00
     -7.740  0.4358E-01  0.1100E+00
     -7.633  0.7957E-01  0.1184E+00
     -7.526  0.2577E+00  0.1459E+00
     -7.420  0.2683E+00  0.1745E+00
     -7.313  0.2370E+00  0.1998E+00
     -7.206  0.1656E+00  0.2175E+00
     -7.100  0.3033E+00  0.2498E+00
     -6.993  0.2868E+00  0.2804E+00
     -6.886  0.2492E+00  0.3070E+00
     -6.780  0.2870E+00  0.3376E+00
     -6.673  0.3406E+00  0.3739E+00
     -6.567  0.4540E+00  0.4224E+00
     -6.460  0.5259E+00  0.4784E+00
     -6.353  0.4493E+00  0.5264E+00
     -6.247  0.4757E+00  0.5771E+00
     -6.140  0.4518E+00  0.6253E+00
     -6.033  0.3625E+00  0.6640E+00
     -5.927  0.3339E+00  0.6996E+00
     -5.820  0.2642E+00  0.7278E+00
     -5.713  0.1654E+00  0.7454E+00
     -5.607  0.4575E+00  0.7942E+00
     -5.500  0.4874E+00  0.8462E+00
     -5.393  0.3700E+00  0.8856E+00
     -5.287  0.3802E+00  0.9262E+00
     -5.180  0.4487E+00  0.9740E+00
     -5.073  0.4567E+00  0.1023E+01
     -4.967  0.3759E+00  0.1063E+01
     -4.860  0.3424E+00  0.1099E+01
     -4.753  0.3548E+00  0.1137E+01
     -4.647  0.4521E+00  0.1185E+01
     -4.540  0.5324E+00  0.1242E+01
     -4.433  0.6579E+00  0.1312E+01
     -4.327  0.6349E+00  0.1380E+01
     -4.220  0.4855E+00  0.1432E+01
     -4.113  0.6887E+00  0.1505E+01
     -4.007  0.7646E+00  0.1587E+01
     -3.900  0.7418E+00  0.1666E+01
     -3.793  0.7084E+00  0.1742E+01
     -3.687  0.7353E+00  0.1820E+01
     -3.580  0.7152E+00  0.1896E+01
     -3.473  0.4738E+00  0.1947E+01
     -3.367  0.3627E+00  0.1985E+01
     -3.260  0.3855E+00  0.2027E+01
     -3.153  0.3657E+00  0.2066E+01
     -3.047  0.3750E+00  0.2106E+01
     -2.940  0.6744E+00  0.2178E+01
     -2.834  0.6743E+00  0.2249E+01
     -2.727  0.4373E+00  0.2296E+01
     -2.620  0.3917E+00  0.2338E+01
     -2.514  0.3835E+00  0.2379E+01
     -2.407  0.4325E+00  0.2425E+01
     -2.300  0.4299E+00  0.2471E+01
     -2.194  0.4877E+00  0.2523E+01
     -2.087  0.5511E+00  0.2582E+01
     -1.980  0.7202E+00  0.2658E+01
     -1.874  0.6439E+00  0.2727E+01
     -1.767  0.5464E+00  0.2785E+01
     -1.660  0.3399E+00  0.2822E+01
     -1.554  0.3386E+00  0.2858E+01
     -1.447  0.5653E+00  0.2918E+01
     -1.340  0.5778E+00  0.2980E+01
     -1.234  0.4438E+00  0.3027E+01
     -1.127  0.5423E+00  0.3085E+01
     -1.020  0.6733E+00  0.3157E+01
     -0.914  0.8167E+00  0.3244E+01
     -0.807  0.6743E+00  0.3316E+01
     -0.700  0.5230E+00  0.3371E+01
     -0.594  0.4597E+00  0.3420E+01
     -0.487  0.2240E+00  0.3444E+01
     -0.380  0.6226E-01  0.3451E+01
     -0.274  0.1256E+00  0.3464E+01
     -0.167  0.9764E-01  0.3475E+01
     -0.060  0.6609E-01  0.3482E+01
      0.046  0.1378E+00  0.3497E+01
      0.153  0.1539E+00  0.3513E+01
      0.260  0.1366E+00  0.3528E+01
      0.366  0.1716E+00  0.3546E+01
      0.473  0.9440E-01  0.3556E+01
      0.580  0.7801E-01  0.3564E+01
      0.686  0.3598E-01  0.3568E+01
      0.793  0.2067E-01  0.3570E+01
      0.899  0.8557E-01  0.3579E+01
      1.006  0.9337E-01  0.3589E+01
      1.113  0.1439E+00  0.3605E+01
      1.219  0.1203E+00  0.3618E+01
      1.326  0.1489E+00  0.3633E+01
      1.433  0.1406E+00  0.3648E+01
      1.539  0.1347E+00  0.3663E+01
      1.646  0.9603E-01  0.3673E+01
      1.753  0.5231E-01  0.3679E+01
      1.859  0.9836E-01  0.3689E+01
      1.966  0.6198E-01  0.3696E+01
      2.073  0.1290E+00  0.3709E+01
      2.179  0.1165E+00  0.3722E+01
      2.286  0.8592E-01  0.3731E+01
      2.393  0.1088E+00  0.3743E+01
      2.499  0.1396E+00  0.3758E+01
      2.606  0.1032E+00  0.3769E+01
      2.713  0.7522E-01  0.3777E+01
      2.819  0.8033E-01  0.3785E+01
      2.926  0.1404E+00  0.3800E+01
      3.033  0.1268E+00  0.3814E+01
      3.139  0.9519E-01  0.3824E+01
      3.246  0.9334E-01  0.3834E+01
      3.353  0.9775E-01  0.3844E+01
      3.459  0.1858E+00  0.3864E+01
      3.566  0.4389E-01  0.3869E+01
      3.673  0.6401E-01  0.3875E+01
      3.779  0.6697E-01  0.3883E+01
      3.886  0.4229E-01  0.3887E+01
      3.993  0.2502E-01  0.3890E+01
      4.099  0.9095E-01  0.3899E+01
      4.206  0.9454E-01  0.3910E+01
      4.313  0.6176E-01  0.3916E+01
      4.419  0.9315E-02  0.3917E+01
      4.526  0.2532E-01  0.3920E+01
      4.633  0.2021E-02  0.3920E+01
      4.739 -0.5527E-03  0.3920E+01
      4.846 -0.8315E-05  0.3920E+01
      4.952 -0.9379E-08  0.3920E+01
      5.059 -0.9714E-12  0.3920E+01
      5.166 -0.1041E-16  0.3920E+01
      5.272  0.0000E+00  0.3920E+01
      5.379  0.0000E+00  0.3920E+01
      5.486  0.0000E+00  0.3920E+01
      5.592  0.0000E+00  0.3920E+01
      5.699  0.0000E+00  0.3920E+01
      5.806  0.0000E+00  0.3920E+01
      5.912  0.0000E+00  0.3920E+01
