   66   66  200    1
  0.5189179E+02  0.1121440E-08  0.1121440E-08  0.3144560E-08  0.5000000E-15
  1.000000000000000E-004
  CAR 
 Pt                                      
    650     10    392
 
  0.0000000E+00  0.0000000E+00  0.0000000E+00  0.6250000E-01
    1      -24.630375   1.000000
    2      -11.071621   1.000000
    3      -10.181639   1.000000
    4       -8.885778   1.000000
    5       -8.510187   1.000000
    6       -8.424537   1.000000
    7       -8.422287   1.000000
    8       -8.420317   1.000000
    9       -8.396468   1.000000
   10       -8.393318   1.000000
   11       -8.232659   1.000000
   12       -7.788057   1.000000
   13       -7.696499   1.000000
   14       -7.600205   1.000000
   15       -7.592097   1.000000
   16       -7.442844   1.000000
   17       -7.437338   1.000000
   18       -7.436594   1.000000
   19       -7.360459   1.000000
   20       -7.359521   1.000000
   21       -7.353286   1.000000
   22       -7.351628   1.000000
   23       -7.350845   1.000000
   24       -7.288888   1.000000
   25       -7.273911   1.000000
   26       -7.270402   1.000000
   27       -7.257907   1.000000
   28       -6.841743   1.000000
   29       -6.841452   1.000000
   30       -6.823942   1.000000
   31       -6.603562   1.000000
   32       -6.600876   1.000000
   33       -6.600444   1.000000
   34       -6.592311   1.000000
   35       -6.591808   1.000000
   36       -6.582712   1.000000
   37       -6.579613   1.000000
   38       -6.576287   1.000000
   39       -6.574543   1.000000
   40       -6.573413   1.000000
   41       -6.571505   1.000000
   42       -6.570516   1.000000
   43       -6.553223   1.000000
   44       -6.550937   1.000000
   45       -6.549677   1.000000
   46       -6.512488   1.000000
   47       -6.511487   1.000000
   48       -6.502111   1.000000
   49       -6.457497   1.000000
   50       -6.422105   1.000000
   51       -6.419920   1.000000
   52       -6.411249   1.000000
   53       -6.406815   1.000000
   54       -6.393493   1.000000
   55       -6.252127   1.000000
   56       -6.250462   1.000000
   57       -6.234320   1.000000
   58       -6.232270   1.000000
   59       -6.230657   1.000000
   60       -6.210771   1.000000
   61       -6.119984   1.000000
   62       -6.117370   1.000000
   63       -6.106782   1.000000
   64       -6.103762   1.000000
   65       -6.099654   1.000000
   66       -6.079143   1.000000
   67       -5.775194   1.000000
   68       -5.765727   1.000000
   69       -5.763576   1.000000
   70       -5.759051   1.000000
   71       -5.757653   1.000000
   72       -5.754889   1.000000
   73       -5.714421   1.000000
   74       -5.712127   1.000000
   75       -5.693136   1.000000
   76       -5.628396   1.000000
   77       -5.627951   1.000000
   78       -5.621787   1.000000
   79       -5.618934   1.000000
   80       -5.613573   1.000000
   81       -5.600874   1.000000
   82       -5.593928   1.000000
   83       -5.585242   1.000000
   84       -5.579126   1.000000
   85       -5.564411   1.000000
   86       -5.560347   1.000000
   87       -5.550748   1.000000
   88       -5.240758   1.000000
   89       -5.234364   1.000000
   90       -5.227811   1.000000
   91       -5.204471   1.000000
   92       -5.202784   1.000000
   93       -5.193268   1.000000
   94       -5.171484   1.000000
   95       -5.163785   1.000000
   96       -5.148929   1.000000
   97       -5.142054   1.000000
   98       -5.141159   1.000000
   99       -5.140972   1.000000
  100       -5.133164   1.000000
  101       -5.127184   1.000000
  102       -5.123454   1.000000
  103       -5.122330   1.000000
  104       -5.120072   1.000000
  105       -5.099344   1.000000
  106       -5.001605   1.000000
  107       -4.999801   1.000000
  108       -4.985630   1.000000
  109       -4.979299   1.000000
  110       -4.977244   1.000000
  111       -4.966934   1.000000
  112       -4.800808   1.000000
  113       -4.784529   1.000000
  114       -4.759329   1.000000
  115       -4.730019   1.000000
  116       -4.723206   1.000000
  117       -4.721620   1.000000
  118       -4.709070   1.000000
  119       -4.705986   1.000000
  120       -4.694780   1.000000
  121       -4.589352   1.000000
  122       -4.583820   1.000000
  123       -4.582665   1.000000
  124       -4.574158   1.000000
  125       -4.566590   1.000000
  126       -4.565180   1.000000
  127       -4.551679   1.000000
  128       -4.547611   1.000000
  129       -4.539053   1.000000
  130       -4.526801   1.000000
  131       -4.437596   1.000000
  132       -4.421647   1.000000
  133       -4.411182   1.000000
  134       -4.403909   1.000000
  135       -4.397941   1.000000
  136       -4.382531   1.000000
  137       -4.379710   1.000000
  138       -4.378769   1.000000
  139       -4.363215   1.000000
  140       -4.288400   1.000000
  141       -4.286413   1.000000
  142       -4.227424   1.000000
  143       -4.216771   1.000000
  144       -4.214520   1.000000
  145       -4.210170   1.000000
  146       -4.207383   1.000000
  147       -4.180988   1.000000
  148       -4.153517   1.000000
  149       -4.141811   1.000000
  150       -4.136769   1.000000
  151       -4.070867   1.000000
  152       -4.045890   1.000000
  153       -4.028582   1.000000
  154       -3.994593   1.000000
  155       -3.985198   1.000000
  156       -3.966832   1.000000
  157       -3.962247   1.000000
  158       -3.950355   1.000000
  159       -3.938372   1.000000
  160       -3.934662   1.000000
  161       -3.904783   1.000000
  162       -3.900690   1.000000
  163       -3.897268   1.000000
  164       -3.879001   1.000000
  165       -3.876927   1.000000
  166       -3.869715   1.000000
  167       -3.826110   1.000000
  168       -3.817433   1.000000
  169       -3.814094   1.000000
  170       -3.806060   1.000000
  171       -3.798731   1.000000
  172       -3.796806   1.000000
  173       -3.796515   1.000000
  174       -3.792995   1.000000
  175       -3.787773   1.000000
  176       -3.785352   1.000000
  177       -3.783183   1.000000
  178       -3.781473   1.000000
  179       -3.775186   1.000000
  180       -3.772105   1.000000
  181       -3.771879   1.000000
  182       -3.759406   1.000000
  183       -3.750541   1.000000
  184       -3.743776   1.000000
  185       -3.694106   1.000000
  186       -3.689183   1.000000
  187       -3.641108   1.000000
  188       -3.637424   1.000000
  189       -3.634798   1.000000
  190       -3.628203   1.000000
  191       -3.621717   1.000000
  192       -3.620814   1.000000
  193       -3.588008   1.000000
  194       -3.585879   1.000000
  195       -3.583925   1.000000
  196       -3.553884   1.000000
  197       -3.517877   1.000000
  198       -3.502375   1.000000
  199       -3.498529   1.000000
  200       -3.488458   1.000000
  201       -3.486979   1.000000
  202       -3.479712   1.000000
  203       -3.463152   1.000000
  204       -3.457577   1.000000
  205       -3.433511   1.000000
  206       -3.381860   1.000000
  207       -3.142928   1.000000
  208       -3.139636   1.000000
  209       -3.116314   1.000000
  210       -3.104625   1.000000
  211       -3.099880   1.000000
  212       -3.087629   1.000000
  213       -3.068804   1.000000
  214       -3.066040   1.000000
  215       -3.031496   1.000000
  216       -3.010971   1.000000
  217       -3.007419   1.000000
  218       -2.995583   1.000000
  219       -2.990538   1.000000
  220       -2.983661   1.000000
  221       -2.983121   1.000000
  222       -2.938755   1.000000
  223       -2.938167   1.000000
  224       -2.876447   1.000000
  225       -2.871310   1.000000
  226       -2.867436   1.000000
  227       -2.852823   1.000000
  228       -2.850717   1.000000
  229       -2.840654   1.000000
  230       -2.825688   1.000000
  231       -2.748377   1.000000
  232       -2.740746   1.000000
  233       -2.716406   1.000000
  234       -2.713137   1.000000
  235       -2.712786   1.000000
  236       -2.587404   1.000000
  237       -2.553894   1.000000
  238       -2.548061   1.000000
  239       -2.539614   1.000000
  240       -2.501394   1.000000
  241       -2.481236   1.000000
  242       -2.477660   1.000000
  243       -2.467508   1.000000
  244       -2.466706   1.000000
  245       -2.403712   1.000000
  246       -2.384599   1.000000
  247       -2.372902   1.000000
  248       -2.357162   1.000000
  249       -2.354062   1.000000
  250       -2.353768   1.000000
  251       -2.332614   1.000000
  252       -2.328307   1.000000
  253       -2.321511   1.000000
  254       -2.317804   1.000000
  255       -2.316053   1.000000
  256       -2.308369   1.000000
  257       -2.251827   1.000000
  258       -2.249218   1.000000
  259       -2.244114   1.000000
  260       -2.202944   1.000000
  261       -2.167918   1.000000
  262       -2.165903   1.000000
  263       -2.117333   1.000000
  264       -2.110293   1.000000
  265       -2.092503   1.000000
  266       -2.091043   1.000000
  267       -2.083612   1.000000
  268       -2.078384   1.000000
  269       -2.075812   1.000000
  270       -2.068468   1.000000
  271       -2.046052   1.000000
  272       -2.045203   1.000000
  273       -2.040177   1.000000
  274       -2.030158   1.000000
  275       -2.027470   1.000000
  276       -1.950700   1.000000
  277       -1.947930   1.000000
  278       -1.915147   1.000000
  279       -1.905887   1.000000
  280       -1.905039   1.000000
  281       -1.902008   1.000000
  282       -1.846880   1.000000
  283       -1.845753   1.000000
  284       -1.801554   1.000000
  285       -1.756491   1.000000
  286       -1.631661   1.000000
  287       -1.627665   1.000000
  288       -1.576567   1.000000
  289       -1.504105   1.000000
  290       -1.502915   1.000000
  291       -1.419640   1.000000
  292       -1.401443   1.000000
  293       -1.400692   1.000000
  294       -1.399582   1.000000
  295       -1.385677   1.000000
  296       -1.383634   1.000000
  297       -1.311065   1.000000
  298       -1.209641   1.000074
  299       -1.201394   1.000118
  300       -1.199798   1.000129
  301       -1.191598   1.000200
  302       -1.189307   1.000226
  303       -1.125853   1.003943
  304       -1.118922   1.005083
  305       -1.109451   1.007052
  306       -1.031855   1.035252
  307       -1.030800   1.035350
  308       -1.004591   1.024015
  309       -0.952762   0.853942
  310       -0.937604   0.755865
  311       -0.925928   0.667917
  312       -0.876883   0.267511
  313       -0.870122   0.219477
  314       -0.860067   0.155238
  315       -0.858965   0.148768
  316       -0.844777   0.076194
  317       -0.843208   0.069416
  318       -0.841391   0.061873
  319       -0.830546   0.023621
  320       -0.828261   0.016994
  321       -0.825079   0.008558
  322       -0.819561  -0.003985
  323       -0.810797  -0.018900
  324       -0.808289  -0.022143
  325       -0.805486  -0.025275
  326       -0.803915  -0.026817
  327       -0.646811  -0.000774
  328       -0.645877  -0.000741
  329       -0.639796  -0.000555
  330       -0.614383  -0.000151
  331       -0.611406  -0.000129
  332       -0.611221  -0.000127
  333       -0.607844  -0.000106
  334       -0.602411  -0.000078
  335       -0.601788  -0.000075
  336       -0.598500  -0.000062
  337       -0.594811  -0.000050
  338       -0.590838  -0.000040
  339       -0.588548  -0.000035
  340       -0.586481  -0.000031
  341       -0.436569  -0.000000
  342       -0.436316  -0.000000
  343       -0.393128  -0.000000
  344       -0.370868  -0.000000
  345       -0.370645  -0.000000
  346       -0.359135  -0.000000
  347       -0.346722  -0.000000
  348        0.019653  -0.000000
  349        0.029818  -0.000000
  350        0.035211  -0.000000
  351        0.514963  -0.000000
  352        1.030950  -0.000000
  353        1.033109  -0.000000
  354        1.054002  -0.000000
  355        1.061747  -0.000000
  356        1.064645  -0.000000
  357        1.071451  -0.000000
  358        1.239015  -0.000000
  359        1.249033  -0.000000
  360        1.435162  -0.000000
  361        1.440054  -0.000000
  362        1.476158  -0.000000
  363        1.478812  -0.000000
  364        1.494213  -0.000000
  365        1.500790  -0.000000
  366        1.549804  -0.000000
  367        1.551110  -0.000000
  368        1.557005  -0.000000
  369        1.560900  -0.000000
  370        1.564856  -0.000000
  371        1.573453  -0.000000
  372        1.778494  -0.000000
  373        1.802034  -0.000000
  374        1.809997  -0.000000
  375        2.035017   0.000000
  376        2.043278   0.000000
  377        2.080460   0.000000
  378        2.174974   0.000000
  379        2.463520   0.000000
  380        2.485397   0.000000
  381        2.703131   0.000000
  382        2.713385   0.000000
  383        2.715601   0.000000
  384        2.931768   0.000000
  385        3.103592   0.000000
  386        3.141516   0.000000
  387        3.776522   0.000000
  388        3.791597   0.000000
  389        3.807620   0.000000
  390        3.817981   0.000000
  391        3.822229   0.000000
  392        4.129908   0.000000
 
  0.2500000E+00  0.4280917E-16  0.0000000E+00  0.1250000E+00
    1      -24.630235   1.000000
    2      -11.069796   1.000000
    3      -10.051298   1.000000
    4       -9.088379   1.000000
    5       -8.760786   1.000000
    6       -8.668665   1.000000
    7       -8.665063   1.000000
    8       -8.380699   1.000000
    9       -7.998246   1.000000
   10       -7.975966   1.000000
   11       -7.840780   1.000000
   12       -7.812248   1.000000
   13       -7.667922   1.000000
   14       -7.596570   1.000000
   15       -7.591447   1.000000
   16       -7.555293   1.000000
   17       -7.496669   1.000000
   18       -7.464270   1.000000
   19       -7.438033   1.000000
   20       -7.351422   1.000000
   21       -7.339547   1.000000
   22       -7.235301   1.000000
   23       -7.182685   1.000000
   24       -7.174774   1.000000
   25       -7.115702   1.000000
   26       -7.109862   1.000000
   27       -7.081752   1.000000
   28       -6.930777   1.000000
   29       -6.918898   1.000000
   30       -6.819620   1.000000
   31       -6.785002   1.000000
   32       -6.779554   1.000000
   33       -6.761866   1.000000
   34       -6.747080   1.000000
   35       -6.738643   1.000000
   36       -6.690009   1.000000
   37       -6.622175   1.000000
   38       -6.614239   1.000000
   39       -6.601735   1.000000
   40       -6.595755   1.000000
   41       -6.572749   1.000000
   42       -6.563492   1.000000
   43       -6.557564   1.000000
   44       -6.536903   1.000000
   45       -6.501853   1.000000
   46       -6.492192   1.000000
   47       -6.482988   1.000000
   48       -6.470165   1.000000
   49       -6.447857   1.000000
   50       -6.443151   1.000000
   51       -6.432798   1.000000
   52       -6.393400   1.000000
   53       -6.385348   1.000000
   54       -6.368371   1.000000
   55       -6.352122   1.000000
   56       -6.341046   1.000000
   57       -6.330086   1.000000
   58       -6.267505   1.000000
   59       -6.205146   1.000000
   60       -6.199893   1.000000
   61       -6.162894   1.000000
   62       -6.157916   1.000000
   63       -6.113454   1.000000
   64       -6.091377   1.000000
   65       -6.077211   1.000000
   66       -5.986075   1.000000
   67       -5.978637   1.000000
   68       -5.972888   1.000000
   69       -5.960224   1.000000
   70       -5.935304   1.000000
   71       -5.907871   1.000000
   72       -5.880338   1.000000
   73       -5.877654   1.000000
   74       -5.684125   1.000000
   75       -5.680019   1.000000
   76       -5.670106   1.000000
   77       -5.667307   1.000000
   78       -5.647362   1.000000
   79       -5.604237   1.000000
   80       -5.600224   1.000000
   81       -5.532876   1.000000
   82       -5.528639   1.000000
   83       -5.507934   1.000000
   84       -5.502674   1.000000
   85       -5.472669   1.000000
   86       -5.464389   1.000000
   87       -5.384770   1.000000
   88       -5.382027   1.000000
   89       -5.342767   1.000000
   90       -5.322559   1.000000
   91       -5.320220   1.000000
   92       -5.312254   1.000000
   93       -5.277036   1.000000
   94       -5.254217   1.000000
   95       -5.251765   1.000000
   96       -5.243650   1.000000
   97       -5.191038   1.000000
   98       -5.181531   1.000000
   99       -5.147402   1.000000
  100       -5.137562   1.000000
  101       -5.108891   1.000000
  102       -5.091579   1.000000
  103       -5.063367   1.000000
  104       -5.059084   1.000000
  105       -5.050602   1.000000
  106       -5.042209   1.000000
  107       -4.980496   1.000000
  108       -4.959061   1.000000
  109       -4.949602   1.000000
  110       -4.902543   1.000000
  111       -4.820370   1.000000
  112       -4.799819   1.000000
  113       -4.766918   1.000000
  114       -4.760516   1.000000
  115       -4.729104   1.000000
  116       -4.674237   1.000000
  117       -4.659409   1.000000
  118       -4.650462   1.000000
  119       -4.626746   1.000000
  120       -4.607027   1.000000
  121       -4.591452   1.000000
  122       -4.578493   1.000000
  123       -4.572887   1.000000
  124       -4.559984   1.000000
  125       -4.553811   1.000000
  126       -4.548846   1.000000
  127       -4.539347   1.000000
  128       -4.534580   1.000000
  129       -4.520304   1.000000
  130       -4.497779   1.000000
  131       -4.465395   1.000000
  132       -4.458631   1.000000
  133       -4.443450   1.000000
  134       -4.439834   1.000000
  135       -4.408531   1.000000
  136       -4.378427   1.000000
  137       -4.375895   1.000000
  138       -4.359770   1.000000
  139       -4.355626   1.000000
  140       -4.325076   1.000000
  141       -4.290095   1.000000
  142       -4.241275   1.000000
  143       -4.221460   1.000000
  144       -4.211494   1.000000
  145       -4.208004   1.000000
  146       -4.179577   1.000000
  147       -4.156698   1.000000
  148       -4.152982   1.000000
  149       -4.138219   1.000000
  150       -4.127550   1.000000
  151       -4.116429   1.000000
  152       -4.111479   1.000000
  153       -4.094336   1.000000
  154       -4.072258   1.000000
  155       -4.069077   1.000000
  156       -4.036870   1.000000
  157       -4.012119   1.000000
  158       -3.982281   1.000000
  159       -3.977032   1.000000
  160       -3.971973   1.000000
  161       -3.960868   1.000000
  162       -3.958336   1.000000
  163       -3.935509   1.000000
  164       -3.927735   1.000000
  165       -3.897007   1.000000
  166       -3.893431   1.000000
  167       -3.874592   1.000000
  168       -3.869562   1.000000
  169       -3.857746   1.000000
  170       -3.837168   1.000000
  171       -3.830254   1.000000
  172       -3.814371   1.000000
  173       -3.805609   1.000000
  174       -3.798049   1.000000
  175       -3.750849   1.000000
  176       -3.747444   1.000000
  177       -3.723607   1.000000
  178       -3.720760   1.000000
  179       -3.712921   1.000000
  180       -3.706329   1.000000
  181       -3.694998   1.000000
  182       -3.676745   1.000000
  183       -3.660465   1.000000
  184       -3.656327   1.000000
  185       -3.627519   1.000000
  186       -3.606358   1.000000
  187       -3.604264   1.000000
  188       -3.599968   1.000000
  189       -3.589835   1.000000
  190       -3.570310   1.000000
  191       -3.567326   1.000000
  192       -3.556423   1.000000
  193       -3.553061   1.000000
  194       -3.532920   1.000000
  195       -3.491662   1.000000
  196       -3.446776   1.000000
  197       -3.436625   1.000000
  198       -3.428686   1.000000
  199       -3.419283   1.000000
  200       -3.410422   1.000000
  201       -3.348658   1.000000
  202       -3.334733   1.000000
  203       -3.308552   1.000000
  204       -3.288303   1.000000
  205       -3.271916   1.000000
  206       -3.234076   1.000000
  207       -3.212403   1.000000
  208       -3.206781   1.000000
  209       -3.194661   1.000000
  210       -3.192609   1.000000
  211       -3.132306   1.000000
  212       -3.098902   1.000000
  213       -3.078658   1.000000
  214       -3.034123   1.000000
  215       -3.026111   1.000000
  216       -3.006809   1.000000
  217       -2.991365   1.000000
  218       -2.987627   1.000000
  219       -2.973717   1.000000
  220       -2.955091   1.000000
  221       -2.939353   1.000000
  222       -2.933120   1.000000
  223       -2.923234   1.000000
  224       -2.921549   1.000000
  225       -2.899451   1.000000
  226       -2.888341   1.000000
  227       -2.867738   1.000000
  228       -2.834739   1.000000
  229       -2.811733   1.000000
  230       -2.802192   1.000000
  231       -2.758115   1.000000
  232       -2.694691   1.000000
  233       -2.659405   1.000000
  234       -2.631188   1.000000
  235       -2.606588   1.000000
  236       -2.597058   1.000000
  237       -2.514346   1.000000
  238       -2.506131   1.000000
  239       -2.480213   1.000000
  240       -2.470535   1.000000
  241       -2.458270   1.000000
  242       -2.443511   1.000000
  243       -2.421578   1.000000
  244       -2.411854   1.000000
  245       -2.402129   1.000000
  246       -2.388493   1.000000
  247       -2.344079   1.000000
  248       -2.317460   1.000000
  249       -2.295469   1.000000
  250       -2.264195   1.000000
  251       -2.250040   1.000000
  252       -2.241254   1.000000
  253       -2.239481   1.000000
  254       -2.226814   1.000000
  255       -2.181310   1.000000
  256       -2.122932   1.000000
  257       -2.107174   1.000000
  258       -2.083792   1.000000
  259       -2.078547   1.000000
  260       -2.071220   1.000000
  261       -2.050521   1.000000
  262       -2.046841   1.000000
  263       -2.034287   1.000000
  264       -2.030085   1.000000
  265       -2.023768   1.000000
  266       -2.013821   1.000000
  267       -1.969038   1.000000
  268       -1.967751   1.000000
  269       -1.940138   1.000000
  270       -1.934078   1.000000
  271       -1.912954   1.000000
  272       -1.911606   1.000000
  273       -1.900680   1.000000
  274       -1.896149   1.000000
  275       -1.875935   1.000000
  276       -1.845734   1.000000
  277       -1.840232   1.000000
  278       -1.803309   1.000000
  279       -1.789912   1.000000
  280       -1.783961   1.000000
  281       -1.777071   1.000000
  282       -1.769413   1.000000
  283       -1.758686   1.000000
  284       -1.740760   1.000000
  285       -1.644089   1.000000
  286       -1.628366   1.000000
  287       -1.615400   1.000000
  288       -1.579985   1.000000
  289       -1.576155   1.000000
  290       -1.520575   1.000000
  291       -1.499919   1.000000
  292       -1.481786   1.000000
  293       -1.477644   1.000000
  294       -1.457354   1.000000
  295       -1.407058   1.000000
  296       -1.402017   1.000000
  297       -1.390226   1.000000
  298       -1.379482   1.000000
  299       -1.355938   1.000000
  300       -1.312220   1.000000
  301       -1.267374   1.000002
  302       -1.233388   1.000018
  303       -1.192927   1.000187
  304       -1.185861   1.000270
  305       -1.178590   1.000391
  306       -1.140969   1.002174
  307       -1.125333   1.004020
  308       -1.105137   1.008123
  309       -1.079947   1.016708
  310       -1.045233   1.031916
  311       -1.020726   1.034532
  312       -1.015489   1.032566
  313       -1.000114   1.018415
  314       -0.991861   1.004316
  315       -0.987017   0.993512
  316       -0.960990   0.898107
  317       -0.956146   0.872918
  318       -0.948909   0.830987
  319       -0.934366   0.732413
  320       -0.929722   0.697475
  321       -0.905306   0.497264
  322       -0.894095   0.403099
  323       -0.867088   0.199139
  324       -0.857612   0.140983
  325       -0.850729   0.104181
  326       -0.842055   0.064589
  327       -0.817270  -0.008452
  328       -0.810462  -0.019358
  329       -0.751931  -0.025977
  330       -0.733225  -0.017512
  331       -0.731036  -0.016593
  332       -0.723896  -0.013774
  333       -0.723365  -0.013576
  334       -0.711541  -0.009632
  335       -0.709624  -0.009076
  336       -0.667686  -0.001951
  337       -0.644987  -0.000710
  338       -0.641477  -0.000601
  339       -0.614646  -0.000153
  340       -0.599861  -0.000067
  341       -0.577073  -0.000017
  342       -0.564231  -0.000008
  343       -0.547987  -0.000003
  344       -0.512756  -0.000000
  345       -0.373861  -0.000000
  346       -0.264583  -0.000000
  347       -0.186487  -0.000000
  348        0.051245  -0.000000
  349        0.051731  -0.000000
  350        0.114014  -0.000000
  351        0.252952  -0.000000
  352        0.263294  -0.000000
  353        0.308144  -0.000000
  354        0.468970  -0.000000
  355        0.481765  -0.000000
  356        0.606594  -0.000000
  357        0.931161  -0.000000
  358        1.011029  -0.000000
  359        1.015835  -0.000000
  360        1.104875  -0.000000
  361        1.182050  -0.000000
  362        1.268001  -0.000000
  363        1.312967  -0.000000
  364        1.351201  -0.000000
  365        1.355571  -0.000000
  366        1.458921  -0.000000
  367        1.472695  -0.000000
  368        1.580227  -0.000000
  369        1.756295  -0.000000
  370        1.812493  -0.000000
  371        1.872723   0.000000
  372        2.028122   0.000000
  373        2.092136   0.000000
  374        2.120308   0.000000
  375        2.274290   0.000000
  376        2.411041   0.000000
  377        2.465383   0.000000
  378        2.664839   0.000000
  379        2.808325   0.000000
  380        2.835978   0.000000
  381        2.952385   0.000000
  382        3.008021   0.000000
  383        3.099906   0.000000
  384        3.148968   0.000000
  385        3.326001   0.000000
  386        3.393919   0.000000
  387        3.405512   0.000000
  388        3.420305   0.000000
  389        3.807334   0.000000
  390        4.183705   0.000000
  391        4.244366   0.000000
  392        4.457973   0.000000
 
  0.5000000E+00  0.8561833E-16  0.0000000E+00  0.6250000E-01
    1      -24.630257   1.000000
    2      -11.068101   1.000000
    3       -9.690465   1.000000
    4       -9.651282   1.000000
    5       -8.751255   1.000000
    6       -8.750491   1.000000
    7       -8.482394   1.000000
    8       -8.388081   1.000000
    9       -8.260270   1.000000
   10       -7.623911   1.000000
   11       -7.604278   1.000000
   12       -7.539105   1.000000
   13       -7.535757   1.000000
   14       -7.520352   1.000000
   15       -7.504668   1.000000
   16       -7.479525   1.000000
   17       -7.462017   1.000000
   18       -7.443826   1.000000
   19       -7.440219   1.000000
   20       -7.275824   1.000000
   21       -7.253617   1.000000
   22       -7.219527   1.000000
   23       -7.205060   1.000000
   24       -7.147093   1.000000
   25       -7.126482   1.000000
   26       -7.114612   1.000000
   27       -7.105366   1.000000
   28       -7.075333   1.000000
   29       -7.064882   1.000000
   30       -6.936045   1.000000
   31       -6.925267   1.000000
   32       -6.908306   1.000000
   33       -6.901777   1.000000
   34       -6.815415   1.000000
   35       -6.809578   1.000000
   36       -6.799267   1.000000
   37       -6.773226   1.000000
   38       -6.659810   1.000000
   39       -6.639074   1.000000
   40       -6.577251   1.000000
   41       -6.571493   1.000000
   42       -6.554829   1.000000
   43       -6.549985   1.000000
   44       -6.536896   1.000000
   45       -6.518789   1.000000
   46       -6.466394   1.000000
   47       -6.445914   1.000000
   48       -6.439190   1.000000
   49       -6.433298   1.000000
   50       -6.428033   1.000000
   51       -6.407013   1.000000
   52       -6.349344   1.000000
   53       -6.332159   1.000000
   54       -6.305779   1.000000
   55       -6.304188   1.000000
   56       -6.290662   1.000000
   57       -6.287698   1.000000
   58       -6.286019   1.000000
   59       -6.272034   1.000000
   60       -6.253628   1.000000
   61       -6.240247   1.000000
   62       -6.223058   1.000000
   63       -6.206019   1.000000
   64       -6.096608   1.000000
   65       -6.090247   1.000000
   66       -6.083521   1.000000
   67       -6.067702   1.000000
   68       -6.060740   1.000000
   69       -6.055221   1.000000
   70       -6.038220   1.000000
   71       -6.016135   1.000000
   72       -5.915142   1.000000
   73       -5.897756   1.000000
   74       -5.690640   1.000000
   75       -5.679339   1.000000
   76       -5.675167   1.000000
   77       -5.672325   1.000000
   78       -5.640009   1.000000
   79       -5.632061   1.000000
   80       -5.614903   1.000000
   81       -5.609456   1.000000
   82       -5.579700   1.000000
   83       -5.569865   1.000000
   84       -5.564082   1.000000
   85       -5.562111   1.000000
   86       -5.534483   1.000000
   87       -5.518541   1.000000
   88       -5.368859   1.000000
   89       -5.360726   1.000000
   90       -5.356629   1.000000
   91       -5.341192   1.000000
   92       -5.300456   1.000000
   93       -5.297883   1.000000
   94       -5.278364   1.000000
   95       -5.271819   1.000000
   96       -5.243405   1.000000
   97       -5.215592   1.000000
   98       -5.187150   1.000000
   99       -5.169371   1.000000
  100       -5.122644   1.000000
  101       -5.106145   1.000000
  102       -5.021665   1.000000
  103       -5.016124   1.000000
  104       -5.000086   1.000000
  105       -4.995314   1.000000
  106       -4.991366   1.000000
  107       -4.953381   1.000000
  108       -4.944535   1.000000
  109       -4.941393   1.000000
  110       -4.920669   1.000000
  111       -4.910021   1.000000
  112       -4.772976   1.000000
  113       -4.766310   1.000000