 running on   64 total cores
 distrk:  each k-point on   64 cores,    1 groups
 distr:  one band on    8 cores,    8 groups
 using from now: INCAR     
 vasp.5.4.4.18Apr17-6-g9f103f2a35 (build May 23 2022 10:35:18) complex          
  
 POSCAR found type information on POSCAR  Pt O  C 
 POSCAR found :  3 types and      66 ions
 scaLAPACK will be used
 LDA part: xc-table for Pade appr. of Perdew
 POSCAR found type information on POSCAR  Pt O  C 
 POSCAR found :  3 types and      66 ions
 POSCAR, INCAR and KPOINTS ok, starting setup
 FFT: planning ...
 WAVECAR not read
 entering main loop
       N       E                     dE             d eps       ncg     rms          rms(c)
DAV:   1     0.424399822042E+04    0.42440E+04   -0.23748E+05  7904   0.112E+03
DAV:   2    -0.242404257889E+02   -0.42682E+04   -0.39232E+04  9832   0.254E+02
DAV:   3    -0.392129261311E+03   -0.36789E+03   -0.33667E+03  9008   0.720E+01
DAV:   4    -0.410135524570E+03   -0.18006E+02   -0.16581E+02 10448   0.141E+01
DAV:   5    -0.410704516649E+03   -0.56899E+00   -0.55802E+00  9872   0.259E+00    0.815E+01
RMM:   6    -0.397558790617E+03    0.13146E+02   -0.69848E+01  7874   0.134E+01    0.598E+01
RMM:   7    -0.483793983293E+03   -0.86235E+02   -0.16210E+02  7880   0.148E+01    0.793E+01
RMM:   8    -0.392864655555E+03    0.90929E+02   -0.46236E+01  7887   0.873E+00    0.272E+01
RMM:   9    -0.423930154985E+03   -0.31065E+02   -0.47088E+01  7867   0.807E+00    0.528E+01
RMM:  10    -0.405975772066E+03    0.17954E+02   -0.13915E+01  7854   0.400E+00    0.436E+01
RMM:  11    -0.391318435515E+03    0.14657E+02   -0.49403E+00  7875   0.276E+00    0.242E+01
RMM:  12    -0.388804893501E+03    0.25135E+01   -0.18516E+00  7884   0.167E+00    0.192E+01
RMM:  13    -0.386712231764E+03    0.20927E+01   -0.16853E+00  7887   0.156E+00    0.121E+01
RMM:  14    -0.385924953530E+03    0.78728E+00   -0.90610E-01  7879   0.112E+00    0.888E+00
RMM:  15    -0.385508566311E+03    0.41639E+00   -0.44875E-01  7888   0.785E-01    0.531E+00
RMM:  16    -0.385420224561E+03    0.88342E-01   -0.15112E-01  7905   0.459E-01    0.411E+00
RMM:  17    -0.385392903588E+03    0.27321E-01   -0.81909E-02  7932   0.332E-01    0.358E+00
RMM:  18    -0.385331359871E+03    0.61544E-01   -0.50548E-02  7896   0.271E-01    0.192E+00
RMM:  19    -0.385325391155E+03    0.59687E-02   -0.30174E-02  7890   0.213E-01    0.156E+00
RMM:  20    -0.385312500939E+03    0.12890E-01   -0.10081E-02  7898   0.125E-01    0.993E-01
RMM:  21    -0.385308919514E+03    0.35814E-02   -0.26480E-03  7966   0.626E-02    0.826E-01
RMM:  22    -0.385307424488E+03    0.14950E-02   -0.21774E-03  7895   0.563E-02    0.735E-01
RMM:  23    -0.385304775761E+03    0.26487E-02   -0.25265E-03  7889   0.620E-02    0.518E-01
RMM:  24    -0.385303543596E+03    0.12322E-02   -0.18069E-03  7893   0.525E-02    0.363E-01
RMM:  25    -0.385303088859E+03    0.45474E-03   -0.77305E-04  7893   0.319E-02    0.324E-01
RMM:  26    -0.385303008254E+03    0.80606E-04   -0.67753E-04  7875   0.284E-02    0.316E-01
RMM:  27    -0.385302693985E+03    0.31427E-03   -0.32119E-04  7940   0.203E-02    0.248E-01
RMM:  28    -0.385302340583E+03    0.35340E-03   -0.15234E-04  7806   0.151E-02    0.155E-01
RMM:  29    -0.385302166253E+03    0.17433E-03   -0.14441E-04  7735   0.144E-02    0.521E-02
RMM:  30    -0.385302195913E+03   -0.29660E-04   -0.24217E-05  4695   0.611E-03    0.379E-02
RMM:  31    -0.385302285551E+03   -0.89639E-04   -0.18878E-05  4440   0.546E-03    0.308E-02
RMM:  32    -0.385302325331E+03   -0.39780E-04   -0.73064E-06  4273   0.353E-03    0.251E-02
RMM:  33    -0.385302395436E+03   -0.70104E-04   -0.84356E-06  4340   0.338E-03    0.160E-02
RMM:  34    -0.385302485491E+03   -0.90056E-04   -0.80448E-06  4376   0.309E-03    0.120E-02
RMM:  35    -0.385302560268E+03   -0.74776E-04   -0.53732E-06  4164   0.240E-03    0.116E-02
RMM:  36    -0.385302619744E+03   -0.59477E-04   -0.38496E-06  3802   0.201E-03    0.953E-03
RMM:  37    -0.385302668819E+03   -0.49074E-04   -0.23198E-06  3002   0.163E-03    0.933E-03
RMM:  38    -0.385302726779E+03   -0.57960E-04   -0.28980E-06  3480   0.174E-03    0.760E-03
RMM:  39    -0.385302764607E+03   -0.37828E-04   -0.19174E-06  2343   0.144E-03    0.351E-03
RMM:  40    -0.385302789956E+03   -0.25350E-04   -0.13902E-06  2253   0.133E-03    0.239E-03
RMM:  41    -0.385302806858E+03   -0.16902E-04   -0.80257E-07  1779   0.116E-03    0.155E-03
RMM:  42    -0.385302833658E+03   -0.26800E-04   -0.82957E-07  1908   0.121E-03    0.159E-03
RMM:  43    -0.385302852186E+03   -0.18528E-04   -0.63705E-07  1904   0.117E-03    0.135E-03
RMM:  44    -0.385302863301E+03   -0.11115E-04   -0.44996E-07  1532   0.105E-03    0.986E-04
RMM:  45    -0.385302868404E+03   -0.51033E-05   -0.16622E-07   945   0.943E-04
   1 F= -.38530287E+03 E0= -.38528823E+03  d E =-.385303E+03
 curvature:   0.00 expect dE= 0.000E+00 dE for cont linesearch  0.000E+00
 trial: gam= 0.00000 g(F)=  0.127E+00 g(S)=  0.000E+00 ort = 0.000E+00 (trialstep = 0.100E+01)
 search vector abs. value=  0.127E+00
 bond charge predicted
       N       E                     dE             d eps       ncg     rms          rms(c)
DAV:   1    -0.385384225349E+03   -0.81362E-01   -0.30890E+01  8000   0.734E+00    0.109E+00
RMM:   2    -0.385466465398E+03   -0.82240E-01   -0.44177E-01  7894   0.111E+00    0.270E+00
RMM:   3    -0.385425097826E+03    0.41368E-01   -0.33364E-02  8524   0.231E-01    0.792E-01
RMM:   4    -0.385448150631E+03   -0.23053E-01   -0.21674E-02  7888   0.181E-01    0.209E+00
RMM:   5    -0.385429373093E+03    0.18778E-01   -0.11274E-02  7900   0.134E-01    0.127E+00
RMM:   6    -0.385426054277E+03    0.33188E-02   -0.75806E-03  7888   0.110E-01    0.905E-01
RMM:   7    -0.385422035345E+03    0.40189E-02   -0.50062E-03  7884   0.889E-02    0.428E-01
RMM:   8    -0.385420699202E+03    0.13361E-02   -0.18280E-03  7883   0.546E-02    0.188E-01
RMM:   9    -0.385420609893E+03    0.89310E-04   -0.47938E-04  7877   0.267E-02    0.174E-01
RMM:  10    -0.385420417785E+03    0.19211E-03   -0.20521E-04  7828   0.182E-02    0.949E-02
RMM:  11    -0.385420352303E+03    0.65482E-04   -0.90442E-05  7784   0.122E-02    0.479E-02
RMM:  12    -0.385420342832E+03    0.94715E-05   -0.11422E-04  7821   0.129E-02    0.379E-02
RMM:  13    -0.385420333501E+03    0.93312E-05   -0.28230E-05  4619   0.717E-03
   2 F= -.38542033E+03 E0= -.38540481E+03  d E =-.117465E+00
 ZBRENT: can't locate minimum, use default step
 trial-energy change:   -0.117465  1 .order   -0.117030   -0.127387   -0.106673
 step:   4.0000(harm=  6.1498)  dis= 0.21103  next Energy=  -385.614104 (dE=-0.311E+00)
 bond charge predicted
       N       E                     dE             d eps       ncg     rms          rms(c)
DAV:   1    -0.385320476619E+03    0.99866E-01   -0.28272E+02  7840   0.223E+01    0.349E+00
RMM:   2    -0.385810884615E+03   -0.49041E+00   -0.46400E+00  7898   0.347E+00    0.412E+00
RMM:   3    -0.386461346129E+03   -0.65046E+00   -0.51434E-01  7977   0.895E-01    0.958E+00
RMM:   4    -0.386017539519E+03    0.44381E+00   -0.29233E-01  7933   0.621E-01    0.681E+00
RMM:   5    -0.385753329321E+03    0.26421E+00   -0.90053E-02  7900   0.387E-01    0.343E+00
RMM:   6    -0.385717638256E+03    0.35691E-01   -0.54175E-02  7892   0.292E-01    0.257E+00
RMM:   7    -0.385693280667E+03    0.24358E-01   -0.39657E-02  7888   0.251E-01    0.136E+00
RMM:   8    -0.385681998942E+03    0.11282E-01   -0.21803E-02  7886   0.188E-01    0.748E-01
RMM:   9    -0.385679867352E+03    0.21316E-02   -0.55134E-03  7886   0.929E-02    0.539E-01
RMM:  10    -0.385679003274E+03    0.86408E-03   -0.29806E-03  7885   0.675E-02    0.434E-01
RMM:  11    -0.385677589062E+03    0.14142E-02   -0.12921E-03  7884   0.464E-02    0.176E-01
RMM:  12    -0.385677543032E+03    0.46030E-04   -0.44508E-04  7872   0.254E-02    0.146E-01
RMM:  13    -0.385677387396E+03    0.15564E-03   -0.25337E-04  7850   0.203E-02    0.692E-02
RMM:  14    -0.385677376023E+03    0.11373E-04   -0.57030E-05  6704   0.988E-03    0.538E-02
RMM:  15    -0.385677373662E+03    0.23608E-05   -0.14631E-05  4317   0.532E-03
   3 F= -.38567737E+03 E0= -.38565830E+03  d E =-.374505E+00
 curvature:  -2.54 expect dE=-0.107E+01 dE for cont linesearch -0.930E-01
 ZBRENT: increasing intervall
 opt :  10.0000  next Energy=  -385.856869 (dE=-0.554E+00)
 bond charge predicted
       N       E                     dE             d eps       ncg     rms          rms(c)
DAV:   1    -0.383607306199E+03    0.20701E+01   -0.11687E+03  7848   0.457E+01    0.828E+00
RMM:   2    -0.385964704767E+03   -0.23574E+01   -0.26482E+01  7895   0.758E+00    0.826E+00
RMM:   3    -0.385721598017E+03    0.24311E+00   -0.18985E+00  7934   0.180E+00    0.709E+00
RMM:   4    -0.386403321627E+03   -0.68172E+00   -0.79893E-01  7907   0.111E+00    0.118E+01
RMM:   5    -0.386506573806E+03   -0.10325E+00   -0.48083E-01  7897   0.791E-01    0.121E+01
RMM:   6    -0.385599592129E+03    0.90698E+00   -0.41990E-01  7885   0.777E-01    0.520E+00
RMM:   7    -0.385419991817E+03    0.17960E+00   -0.24369E-01  7877   0.625E-01    0.294E+00
RMM:   8    -0.385451235802E+03   -0.31244E-01   -0.11499E-01  7881   0.422E-01    0.350E+00
RMM:   9    -0.385377647143E+03    0.73589E-01   -0.49879E-02  7880   0.287E-01    0.121E+00
RMM:  10    -0.385375245740E+03    0.24014E-02   -0.18808E-02  7878   0.172E-01    0.106E+00
RMM:  11    -0.385370104562E+03    0.51412E-02   -0.85697E-03  7879   0.119E-01    0.693E-01
RMM:  12    -0.385366904201E+03    0.32004E-02   -0.31911E-03  7875   0.724E-02    0.259E-01
RMM:  13    -0.385366919619E+03   -0.15418E-04   -0.92533E-04  7877   0.384E-02    0.241E-01
RMM:  14    -0.385367177714E+03   -0.25810E-03   -0.60574E-04  7871   0.310E-02    0.227E-01
RMM:  15    -0.385367083003E+03    0.94712E-04   -0.31515E-04  7852   0.231E-02    0.734E-02
RMM:  16    -0.385367277729E+03   -0.19473E-03   -0.97206E-05  7701   0.127E-02    0.609E-02
RMM:  17    -0.385367464419E+03   -0.18669E-03   -0.46723E-05  5823   0.880E-03    0.443E-02
RMM:  18    -0.385367531479E+03   -0.67060E-04   -0.13334E-05  4383   0.486E-03    0.258E-02
RMM:  19    -0.385367671873E+03   -0.14039E-03   -0.13391E-05  4416   0.432E-03    0.163E-02
RMM:  20    -0.385367796546E+03   -0.12467E-03   -0.10425E-05  4408   0.351E-03    0.969E-03
RMM:  21    -0.385367910760E+03   -0.11421E-03   -0.91150E-06  4419   0.298E-03    0.973E-03
RMM:  22    -0.385368023377E+03   -0.11262E-03   -0.10299E-05  4311   0.287E-03    0.993E-03
RMM:  23    -0.385368059003E+03   -0.35626E-04   -0.27958E-06  3031   0.168E-03    0.659E-03
RMM:  24    -0.385368126065E+03   -0.67063E-04   -0.55886E-06  4152   0.226E-03    0.637E-03
RMM:  25    -0.385368171084E+03   -0.45019E-04   -0.39465E-06  3173   0.179E-03    0.486E-03
RMM:  26    -0.385368214599E+03   -0.43515E-04   -0.49141E-06  3952   0.198E-03    0.379E-03
RMM:  27    -0.385368234567E+03   -0.19968E-04   -0.20066E-06  2178   0.137E-03    0.252E-03
RMM:  28    -0.385368240467E+03   -0.58997E-05   -0.58376E-07  1428   0.112E-03
   4 F= -.38536824E+03 E0= -.38534318E+03  d E =-.653721E-01
 curvature:  -4.90 expect dE=-0.117E+02 dE for cont linesearch -0.526E+01
 ZBRENT: bracketing found
 ZBRENT: interpolating
 opt :   4.9352  next Energy=  -385.709309 (dE=-0.406E+00)
 bond charge predicted
       N       E                     dE             d eps       ncg     rms          rms(c)
DAV:   1    -0.384429551487E+03    0.93868E+00   -0.81209E+02  7840   0.369E+01    0.633E+00
RMM:   2    -0.386228246526E+03   -0.17987E+01   -0.16996E+01  7900   0.615E+00    0.892E+00
RMM:   3    -0.387068684081E+03   -0.84044E+00   -0.13533E+00  7996   0.147E+00    0.125E+01
RMM:   4    -0.386537990302E+03    0.53069E+00   -0.81251E-01  7903   0.106E+00    0.984E+00
RMM:   5    -0.385998763443E+03    0.53923E+00   -0.39871E-01  7888   0.802E-01    0.646E+00
RMM:   6    -0.385814712412E+03    0.18405E+00   -0.23900E-01  7895   0.612E-01    0.352E+00
RMM:   7    -0.385786716225E+03    0.27996E-01   -0.12794E-01  7885   0.453E-01    0.240E+00
RMM:   8    -0.385751109812E+03    0.35606E-01   -0.55111E-02  7884   0.305E-01    0.145E+00
RMM:   9    -0.385751023350E+03    0.86462E-04   -0.22602E-02  7881   0.186E-01    0.143E+00
RMM:  10    -0.385738764038E+03    0.12259E-01   -0.10770E-02  7879   0.133E-01    0.562E-01
RMM:  11    -0.385736183768E+03    0.25803E-02   -0.43544E-03  7880   0.836E-02    0.288E-01
RMM:  12    -0.385736502943E+03   -0.31917E-03   -0.19427E-03  7884   0.542E-02    0.367E-01
RMM:  13    -0.385735881002E+03    0.62194E-03   -0.84113E-04  7893   0.369E-02    0.172E-01
RMM:  14    -0.385735814525E+03    0.66477E-04   -0.28039E-04  7856   0.216E-02    0.108E-01
RMM:  15    -0.385735888442E+03   -0.73917E-04   -0.14190E-04  7830   0.151E-02    0.919E-02
RMM:  16    -0.385735897621E+03   -0.91788E-05   -0.53916E-05  6573   0.950E-03
   5 F= -.38573590E+03 E0= -.38571554E+03  d E =-.433029E+00
 curvature:  -0.03 expect dE=-0.183E-01 dE for cont linesearch -0.745E-03
 ZBRENT: bisectioning
 opt :   7.4676  next Energy=  -385.838446 (dE=-0.536E+00)
 bond charge predicted
       N       E                     dE             d eps       ncg     rms          rms(c)
DAV:   1    -0.385547881512E+03    0.18801E+00   -0.19968E+02  7840   0.185E+01    0.312E+00
RMM:   2    -0.385898684242E+03   -0.35080E+00   -0.37064E+00  7898   0.296E+00    0.352E+00
RMM:   3    -0.385937586768E+03   -0.38903E-01   -0.31047E-01  7955   0.721E-01    0.421E+00
RMM:   4    -0.386159821455E+03   -0.22223E+00   -0.14629E-01  7921   0.442E-01    0.689E+00
RMM:   5    -0.385868033362E+03    0.29179E+00   -0.91183E-02  7893   0.369E-01    0.341E+00
RMM:   6    -0.385817790956E+03    0.50242E-01   -0.62436E-02  7884   0.313E-01    0.183E+00
RMM:   7    -0.385801730807E+03    0.16060E-01   -0.36415E-02  7877   0.241E-01    0.100E+00
RMM:   8    -0.385800649949E+03    0.10809E-02   -0.13328E-02  7884   0.149E-01    0.977E-01
RMM:   9    -0.385795458491E+03    0.51915E-02   -0.47297E-03  7885   0.879E-02    0.384E-01
RMM:  10    -0.385794836089E+03    0.62240E-03   -0.17997E-03  7875   0.536E-02    0.260E-01
RMM:  11    -0.385794261630E+03    0.57446E-03   -0.75090E-04  7875   0.353E-02    0.122E-01
RMM:  12    -0.385794245197E+03    0.16433E-04   -0.22683E-04  7841   0.188E-02    0.115E-01
RMM:  13    -0.385794227242E+03    0.17955E-04   -0.13374E-04  7837   0.145E-02    0.835E-02
RMM:  14    -0.385794209811E+03    0.17431E-04   -0.62976E-05  7204   0.104E-02    0.393E-02
RMM:  15    -0.385794220666E+03   -0.10855E-04   -0.12752E-05  4257   0.504E-03    0.272E-02
RMM:  16    -0.385794245033E+03   -0.24367E-04   -0.65205E-06  4216   0.365E-03    0.239E-02
RMM:  17    -0.385794255316E+03   -0.10284E-04   -0.27121E-06  4149   0.246E-03    0.101E-02
RMM:  18    -0.385794277250E+03   -0.21934E-04   -0.21496E-06  4050   0.188E-03    0.793E-03
RMM:  19    -0.385794285693E+03   -0.84427E-05   -0.37767E-07  1646   0.122E-03
   6 F= -.38579429E+03 E0= -.38577089E+03  d E =-.491417E+00
 curvature:  -4.09 expect dE=-0.427E+01 dE for cont linesearch -0.343E-01
 ZBRENT: interpolating
 opt :   6.5396  next Energy=  -385.809447 (dE=-0.507E+00)
 bond charge predicted
       N       E                     dE             d eps       ncg     rms          rms(c)
DAV:   1    -0.385767951919E+03    0.26325E-01   -0.26377E+01  7840   0.665E+00    0.114E+00
RMM:   2    -0.385813884778E+03   -0.45933E-01   -0.47857E-01  7901   0.106E+00    0.141E+00
RMM:   3    -0.385835495753E+03   -0.21611E-01   -0.44265E-02  7971   0.268E-01    0.214E+00
RMM:   4    -0.385842822104E+03   -0.73264E-02   -0.22748E-02  7934   0.174E-01    0.241E+00
RMM:   5    -0.385811281564E+03    0.31541E-01   -0.15099E-02  7892   0.153E-01    0.136E+00
RMM:   6    -0.385802416813E+03    0.88648E-02   -0.92020E-03  7887   0.121E-01    0.603E-01
RMM:   7    -0.385801705532E+03    0.71128E-03   -0.55747E-03  7877   0.933E-02    0.445E-01
RMM:   8    -0.385800531613E+03    0.11739E-02   -0.19522E-03  7884   0.575E-02    0.276E-01
RMM:   9    -0.385800146199E+03    0.38541E-03   -0.55245E-04  7875   0.297E-02    0.151E-01
RMM:  10    -0.385800066181E+03    0.80018E-04   -0.22848E-04  7840   0.189E-02    0.105E-01
RMM:  11    -0.385799975957E+03    0.90224E-04   -0.99399E-05  7748   0.129E-02    0.473E-02
RMM:  12    -0.385799971868E+03    0.40890E-05   -0.38477E-05  5479   0.782E-03
   7 F= -.38579997E+03 E0= -.38577759E+03  d E =-.497103E+00
 curvature:  -1.81 expect dE=-0.165E+01 dE for cont linesearch -0.346E-02
 trial: gam= 7.01665 g(F)=  0.909E+00 g(S)=  0.000E+00 ort = 0.156E-01 (trialstep = 0.363E-01)
 search vector abs. value=  0.740E+01
 bond charge predicted
       N       E                     dE             d eps       ncg     rms          rms(c)
DAV:   1    -0.385833049779E+03   -0.33074E-01   -0.21757E+00  7888   0.184E+00    0.361E-01
RMM:   2    -0.385838190575E+03   -0.51408E-02   -0.45587E-02  7908   0.294E-01    0.535E-01
RMM:   3    -0.385843557033E+03   -0.53665E-02   -0.48916E-03  7966   0.827E-02    0.102E+00
RMM:   4    -0.385836162810E+03    0.73942E-02   -0.16979E-03  7920   0.500E-02    0.262E-01
RMM:   5    -0.385836975690E+03   -0.81288E-03   -0.14110E-03  7883   0.466E-02    0.419E-01
RMM:   6    -0.385836175864E+03    0.79983E-03   -0.89621E-04  7880   0.377E-02    0.203E-01
RMM:   7    -0.385836062071E+03    0.11379E-03   -0.52816E-04  7847   0.287E-02    0.141E-01
RMM:   8    -0.385836019933E+03    0.42138E-04   -0.20983E-04  7826   0.182E-02    0.105E-01
RMM:   9    -0.385835939426E+03    0.80507E-04   -0.84756E-05  7588   0.119E-02    0.395E-02
RMM:  10    -0.385835940663E+03   -0.12366E-05   -0.17208E-05  4371   0.558E-03
   8 F= -.38583594E+03 E0= -.38581347E+03  d E =-.359688E-01
 ZBRENT: can't locate minimum, use default step
 trial-energy change:   -0.035969  1 .order   -0.035879   -0.036975   -0.034784
 step:   0.1451(harm=  0.6123)  dis= 0.06386  next Energy=  -386.111951 (dE=-0.312E+00)
 bond charge predicted
       N       E                     dE             d eps       ncg     rms          rms(c)
DAV:   1    -0.385899754363E+03   -0.63815E-01   -0.19625E+01  7840   0.550E+00    0.116E+00
RMM:   2    -0.385943424443E+03   -0.43670E-01   -0.42064E-01  7903   0.889E-01    0.156E+00
RMM:   3    -0.386001738896E+03   -0.58314E-01   -0.43804E-02  7945   0.249E-01    0.319E+00
RMM:   4    -0.385927318143E+03    0.74421E-01   -0.17064E-02  7932   0.158E-01    0.758E-01
RMM:   5    -0.385934208578E+03   -0.68904E-02   -0.14911E-02  7882   0.151E-01    0.119E+00
RMM:   6    -0.385927029461E+03    0.71791E-02   -0.85543E-03  7882   0.116E-01    0.675E-01
RMM:   7    -0.385925313976E+03    0.17155E-02   -0.44276E-03  7870   0.832E-02    0.396E-01
RMM:   8    -0.385924960549E+03    0.35343E-03   -0.17053E-03  7869   0.523E-02    0.302E-01
RMM:   9    -0.385924266350E+03    0.69420E-03   -0.68764E-04  7859   0.335E-02    0.112E-01
RMM:  10    -0.385924236125E+03    0.30225E-04   -0.15336E-04  7829   0.157E-02    0.893E-02
RMM:  11    -0.385924203667E+03    0.32458E-04   -0.59256E-05  7021   0.100E-02    0.614E-02
RMM:  12    -0.385924187299E+03    0.16368E-04   -0.27458E-05  4642   0.712E-03    0.277E-02
RMM:  13    -0.385924202404E+03   -0.15104E-04   -0.20656E-05  4355   0.618E-03    0.250E-02
RMM:  14    -0.385924208054E+03   -0.56503E-05   -0.76096E-06  4159   0.419E-03
   9 F= -.38592421E+03 E0= -.38590155E+03  d E =-.124236E+00
 curvature:  -0.76 expect dE=-0.655E+00 dE for cont linesearch -0.392E-01
 ZBRENT: increasing intervall
 opt :   0.3629  next Energy=  -385.984484 (dE=-0.185E+00)
 bond charge predicted
       N       E                     dE             d eps       ncg     rms          rms(c)
DAV:   1    -0.385813506742E+03    0.11070E+00   -0.79223E+01  7840   0.110E+01    0.279E+00
RMM:   2    -0.385957905808E+03   -0.14440E+00   -0.17112E+00  7900   0.177E+00    0.285E+00
RMM:   3    -0.386283231503E+03   -0.32533E+00   -0.19049E-01  7926   0.525E-01    0.689E+00
RMM:   4    -0.385947419924E+03    0.33581E+00   -0.98316E-02  7908   0.371E-01    0.255E+00
RMM:   5    -0.385965602979E+03   -0.18183E-01   -0.88179E-02  7882   0.365E-01    0.298E+00
RMM:   6    -0.385913001429E+03    0.52602E-01   -0.43511E-02  7881   0.264E-01    0.137E+00
RMM:   7    -0.385903294456E+03    0.97070E-02   -0.18723E-02  7882   0.171E-01    0.742E-01
RMM:   8    -0.385902748836E+03    0.54562E-03   -0.62753E-03  7872   0.994E-02    0.621E-01
RMM:   9    -0.385899939975E+03    0.28089E-02   -0.30215E-03  7881   0.706E-02    0.253E-01
RMM:  10    -0.385899787561E+03    0.15241E-03   -0.69500E-04  7885   0.336E-02    0.188E-01
RMM:  11    -0.385899773648E+03    0.13914E-04   -0.33284E-04  7838   0.233E-02    0.170E-01
RMM:  12    -0.385899658880E+03    0.11477E-03   -0.16492E-04  7822   0.165E-02    0.613E-02
RMM:  13    -0.385899733246E+03   -0.74366E-04   -0.73217E-05  7333   0.109E-02    0.506E-02
RMM:  14    -0.385899778810E+03   -0.45565E-04   -0.24789E-05  4544   0.682E-03    0.395E-02
RMM:  15    -0.385899797586E+03   -0.18775E-04   -0.85158E-06  4221   0.416E-03    0.140E-02
RMM:  16    -0.385899862151E+03   -0.64566E-04   -0.61335E-06  4284   0.308E-03    0.128E-02
RMM:  17    -0.385899896963E+03   -0.34812E-04   -0.27366E-06  3804   0.206E-03    0.608E-03
RMM:  18    -0.385899944644E+03   -0.47681E-04   -0.30574E-06  3731   0.192E-03    0.783E-03
RMM:  19    -0.385899986908E+03   -0.42263E-04   -0.29042E-06  3321   0.174E-03    0.729E-03
RMM:  20    -0.385900015494E+03   -0.28586E-04   -0.18888E-06  2622   0.151E-03    0.289E-03
RMM:  21    -0.385900056297E+03   -0.40803E-04   -0.36981E-06  3481   0.187E-03    0.313E-03
RMM:  22    -0.385900083068E+03   -0.26771E-04   -0.23868E-06  2629   0.149E-03    0.232E-03
RMM:  23    -0.385900098580E+03   -0.15511E-04   -0.14635E-06  2241   0.129E-03    0.246E-03
RMM:  24    -0.385900109865E+03   -0.11285E-04   -0.10481E-06  1940   0.121E-03    0.206E-03
RMM:  25    -0.385900114994E+03   -0.51294E-05   -0.38741E-07  1222   0.105E-03
  10 F= -.38590011E+03 E0= -.38587752E+03  d E =-.100143E+00
 curvature:  -1.17 expect dE=-0.118E+01 dE for cont linesearch -0.213E+00
 ZBRENT: bracketing found
 ZBRENT: interpolating
 opt :   0.2207  next Energy=  -385.947551 (dE=-0.148E+00)
 bond charge predicted
       N       E                     dE             d eps       ncg     rms          rms(c)
DAV:   1    -0.385919313755E+03   -0.19204E-01   -0.33480E+01  7840   0.702E+00    0.182E+00
RMM:   2    -0.385975390426E+03   -0.56077E-01   -0.70904E-01  7911   0.114E+00    0.179E+00
RMM:   3    -0.386084924381E+03   -0.10953E+00   -0.79965E-02  7942   0.347E-01    0.408E+00
RMM:   4    -0.385997516856E+03    0.87408E-01   -0.43507E-02  7910   0.243E-01    0.230E+00
RMM:   5    -0.385981074668E+03    0.16442E-01   -0.38566E-02  7876   0.241E-01    0.186E+00
RMM:   6    -0.385961931342E+03    0.19143E-01   -0.18449E-02  7884   0.171E-01    0.908E-01
RMM:   7    -0.385958614137E+03    0.33172E-02   -0.81684E-03  7876   0.113E-01    0.524E-01
RMM:   8    -0.385957531475E+03    0.10827E-02   -0.27903E-03  7874   0.677E-02    0.369E-01
RMM:   9    -0.385956502075E+03    0.10294E-02   -0.95425E-04  7863   0.398E-02    0.126E-01
RMM:  10    -0.385956520619E+03   -0.18544E-04   -0.27183E-04  7841   0.207E-02    0.136E-01
RMM:  11    -0.385956435137E+03    0.85482E-04   -0.11420E-04  7802   0.137E-02    0.818E-02
RMM:  12    -0.385956404193E+03    0.30944E-04   -0.53007E-05  6701   0.938E-03    0.344E-02
RMM:  13    -0.385956430024E+03   -0.25832E-04   -0.30429E-05  4708   0.732E-03    0.388E-02
RMM:  14    -0.385956435627E+03   -0.56031E-05   -0.11431E-05  4247   0.510E-03
  11 F= -.38595644E+03 E0= -.38593376E+03  d E =-.156464E+00
 curvature:  -0.13 expect dE=-0.105E+00 dE for cont linesearch -0.748E-03
 ZBRENT: interpolating
 opt :   0.2532  next Energy=  -385.960329 (dE=-0.160E+00)
 bond charge predicted
       N       E                     dE             d eps       ncg     rms          rms(c)
DAV:   1    -0.385957499309E+03   -0.10693E-02   -0.17476E+00  7896   0.162E+00    0.399E-01
RMM:   2    -0.385960594767E+03   -0.30955E-02   -0.36822E-02  7912   0.262E-01    0.413E-01
RMM:   3    -0.385965708882E+03   -0.51141E-02   -0.38565E-03  7949   0.762E-02    0.910E-01
RMM:   4    -0.385960723665E+03    0.49852E-02   -0.19199E-03  7908   0.517E-02    0.434E-01
RMM:   5    -0.385960750885E+03   -0.27220E-04   -0.18430E-03  7875   0.530E-02    0.410E-01
RMM:   6    -0.385959801191E+03    0.94969E-03   -0.92057E-04  7877   0.383E-02    0.207E-01
RMM:   7    -0.385959641312E+03    0.15988E-03   -0.40634E-04  7842   0.252E-02    0.122E-01
RMM:   8    -0.385959625491E+03    0.15821E-04   -0.14934E-04  7828   0.155E-02    0.910E-02
RMM:   9    -0.385959564979E+03    0.60512E-04   -0.59446E-05  6894   0.100E-02    0.319E-02
RMM:  10    -0.385959567195E+03   -0.22169E-05   -0.12091E-05  4241   0.477E-03
  12 F= -.38595957E+03 E0= -.38593690E+03  d E =-.159595E+00
 curvature:  -0.67 expect dE=-0.540E+00 dE for cont linesearch -0.596E-04
 trial: gam= 0.03186 g(F)=  0.810E+00 g(S)=  0.000E+00 ort =-0.257E-01 (trialstep = 0.797E-01)
 search vector abs. value=  0.816E+00
 bond charge predicted
       N       E                     dE             d eps       ncg     rms          rms(c)
DAV:   1    -0.386020387399E+03   -0.60822E-01   -0.13605E+00  7840   0.157E+00    0.228E-01
RMM:   2    -0.386029398944E+03   -0.90115E-02   -0.20843E-02  7915   0.239E-01    0.102E+00
RMM:   3    -0.386023411098E+03    0.59878E-02   -0.13593E-03  8146   0.491E-02    0.483E-01
RMM:   4    -0.386024041598E+03   -0.63050E-03   -0.94856E-04  7897   0.388E-02    0.554E-01
RMM:   5    -0.386022559352E+03    0.14822E-02   -0.90266E-04  7888   0.365E-02    0.331E-01
RMM:   6    -0.386022358385E+03    0.20097E-03   -0.38928E-04  7889   0.249E-02    0.236E-01
RMM:   7    -0.386022099815E+03    0.25857E-03   -0.26997E-04  7848   0.207E-02    0.116E-01
RMM:   8    -0.386022013416E+03    0.86400E-04   -0.10414E-04  7764   0.131E-02    0.399E-02
RMM:   9    -0.386022010626E+03    0.27900E-05   -0.20134E-05  4368   0.594E-03
  13 F= -.38602201E+03 E0= -.38599980E+03  d E =-.624434E-01
 ZBRENT: can't locate minimum, use default step
 trial-energy change:   -0.062443  1 .order   -0.062459   -0.064510   -0.060408
 step:   0.3187(harm=  1.2532)  dis= 0.02221  next Energy=  -386.466887 (dE=-0.507E+00)
 bond charge predicted
       N       E                     dE             d eps       ncg     rms          rms(c)
DAV:   1    -0.386170388854E+03   -0.14838E+00   -0.12242E+01  7840   0.469E+00    0.683E-01
RMM:   2    -0.386258800526E+03   -0.88412E-01   -0.18714E-01  7911   0.718E-01    0.323E+00
RMM:   3    -0.386200287193E+03    0.58513E-01   -0.12323E-02  8139   0.148E-01    0.154E+00
RMM:   4    -0.386204524789E+03   -0.42376E-02   -0.84469E-03  7897   0.115E-01    0.170E+00
RMM:   5    -0.386189865613E+03    0.14659E-01   -0.81913E-03  7882   0.109E-01    0.959E-01
RMM:   6    -0.386188081765E+03    0.17838E-02   -0.34035E-03  7882   0.741E-02    0.702E-01
RMM:   7    -0.386185668362E+03    0.24134E-02   -0.22491E-03  7888   0.594E-02    0.353E-01
RMM:   8    -0.386184847734E+03    0.82063E-03   -0.82834E-04  7881   0.367E-02    0.117E-01
RMM:   9    -0.386184801400E+03    0.46334E-04   -0.19417E-04  7842   0.171E-02    0.105E-01
RMM:  10    -0.386184757386E+03    0.44014E-04   -0.98652E-05  7786   0.123E-02    0.801E-02
RMM:  11    -0.386184720874E+03    0.36512E-04   -0.78467E-05  7798   0.113E-02    0.396E-02
RMM:  12    -0.386184715831E+03    0.50427E-05   -0.26690E-05  4412   0.706E-03
  14 F= -.38618472E+03 E0= -.38616388E+03  d E =-.225149E+00
 curvature:  -0.23 expect dE=-0.138E+00 dE for cont linesearch -0.103E+00
 ZBRENT: increasing intervall
 opt :   0.7968  next Energy=  -386.399335 (dE=-0.440E+00)
 bond charge predicted
       N       E                     dE             d eps       ncg     rms          rms(c)
DAV:   1    -0.386338005631E+03   -0.15328E+00   -0.49019E+01  7840   0.937E+00    0.137E+00
RMM:   2    -0.386693120642E+03   -0.35512E+00   -0.74221E-01  7905   0.143E+00    0.648E+00
RMM:   3    -0.386463577785E+03    0.22954E+00   -0.47589E-02  8172   0.292E-01    0.322E+00
RMM:   4    -0.386475414712E+03   -0.11837E-01   -0.35368E-02  7886   0.235E-01    0.344E+00
RMM:   5    -0.386414261609E+03    0.61153E-01   -0.31968E-02  7885   0.216E-01    0.188E+00
RMM:   6    -0.386408717308E+03    0.55443E-02   -0.13931E-02  7881   0.150E-01    0.141E+00
RMM:   7    -0.386398510258E+03    0.10207E-01   -0.88659E-03  7882   0.118E-01    0.699E-01
RMM:   8    -0.386395041112E+03    0.34691E-02   -0.30555E-03  7876   0.708E-02    0.217E-01
RMM:   9    -0.386394866178E+03    0.17493E-03   -0.78173E-04  7882   0.341E-02    0.215E-01
RMM:  10    -0.386394656111E+03    0.21007E-03   -0.44576E-04  7881   0.261E-02    0.162E-01
RMM:  11    -0.386394511887E+03    0.14422E-03   -0.32480E-04  7878   0.230E-02    0.848E-02
RMM:  12    -0.386394498114E+03    0.13773E-04   -0.12863E-04  7834   0.144E-02    0.573E-02
RMM:  13    -0.386394502338E+03   -0.42242E-05   -0.35888E-05  5241   0.814E-03
  15 F= -.38639450E+03 E0= -.38637632E+03  d E =-.434935E+00
 curvature:  -0.48 expect dE=-0.532E+00 dE for cont linesearch -0.425E-01
 ZBRENT: increasing intervall
 opt :   1.7529  next Energy=  -386.330876 (dE=-0.371E+00)
 bond charge predicted
       N       E                     dE             d eps       ncg     rms          rms(c)
DAV:   1    -0.386086322968E+03    0.30818E+00   -0.19641E+02  7840   0.187E+01    0.284E+00
RMM:   2    -0.387824225618E+03   -0.17379E+01   -0.29934E+00  7895   0.286E+00    0.144E+01
RMM:   3    -0.386659615837E+03    0.11646E+01   -0.19691E-01  8122   0.592E-01    0.730E+00
RMM:   4    -0.386637725480E+03    0.21890E-01   -0.16219E-01  7884   0.500E-01    0.686E+00
RMM:   5    -0.386374534690E+03    0.26319E+00   -0.12476E-01  7875   0.427E-01    0.349E+00
RMM:   6    -0.386348173881E+03    0.26361E-01   -0.64425E-02  7874   0.326E-01    0.221E+00
RMM:   7    -0.386319758077E+03    0.28416E-01   -0.27144E-02  7862   0.209E-01    0.117E+00
RMM:   8    -0.386312159063E+03    0.75990E-02   -0.72086E-03  7887   0.107E-01    0.557E-01
RMM:   9    -0.386310983653E+03    0.11754E-02   -0.49314E-03  7859   0.864E-02    0.478E-01
RMM:  10    -0.386309477313E+03    0.15063E-02   -0.30649E-03  7869   0.700E-02    0.288E-01
RMM:  11    -0.386309321446E+03    0.15587E-03   -0.83507E-04  7878   0.363E-02    0.241E-01
RMM:  12    -0.386309135132E+03    0.18631E-03   -0.33625E-04  7879   0.232E-02    0.147E-01
RMM:  13    -0.386309044467E+03    0.90665E-04   -0.12931E-04  7818   0.147E-02    0.649E-02
RMM:  14    -0.386309097516E+03   -0.53049E-04   -0.46623E-05  6069   0.909E-03    0.604E-02
RMM:  15    -0.386309108116E+03   -0.10600E-04   -0.22967E-05  4515   0.681E-03    0.421E-02
RMM:  16    -0.386309115674E+03   -0.75571E-05   -0.11577E-05  4222   0.481E-03
  16 F= -.38630912E+03 E0= -.38629525E+03  d E =-.349548E+00
 curvature:   0.72 expect dE= 0.475E+01 dE for cont linesearch  0.174E+00
 ZBRENT: bracketing found
 ZBRENT: interpolating
 opt :   1.1570  next Energy=  -386.442870 (dE=-0.483E+00)
 bond charge predicted
       N       E                     dE             d eps       ncg     rms          rms(c)
DAV:   1    -0.386358237634E+03   -0.49130E-01   -0.76062E+01  7840   0.116E+01    0.182E+00
RMM:   2    -0.386894720117E+03   -0.53648E+00   -0.11139E+00  7891   0.175E+00    0.801E+00
RMM:   3    -0.386564785119E+03    0.32993E+00   -0.69948E-02  8268   0.353E-01    0.432E+00
RMM:   4    -0.386558276162E+03    0.65090E-02   -0.56488E-02  7869   0.299E-01    0.425E+00
RMM:   5    -0.386483910701E+03    0.74365E-01   -0.53682E-02  7879   0.284E-01    0.256E+00
RMM:   6    -0.386466263147E+03    0.17648E-01   -0.26634E-02  7871   0.207E-01    0.168E+00
RMM:   7    -0.386447025324E+03    0.19238E-01   -0.13968E-02  7877   0.148E-01    0.768E-01
RMM:   8    -0.386443585136E+03    0.34402E-02   -0.36991E-03  7875   0.763E-02    0.333E-01
RMM:   9    -0.386442719553E+03    0.86558E-03   -0.14273E-03  7871   0.460E-02    0.237E-01
RMM:  10    -0.386442590214E+03    0.12934E-03   -0.93346E-04  7876   0.373E-02    0.233E-01
RMM:  11    -0.386442458186E+03    0.13203E-03   -0.59324E-04  7872   0.307E-02    0.168E-01
RMM:  12    -0.386442364175E+03    0.94011E-04   -0.26346E-04  7867   0.206E-02    0.952E-02
RMM:  13    -0.386442338884E+03    0.25291E-04   -0.56187E-05  6851   0.101E-02    0.561E-02
RMM:  14    -0.386442336748E+03    0.21355E-05   -0.19207E-05  4363   0.605E-03
  17 F= -.38644234E+03 E0= -.38642595E+03  d E =-.482770E+00
 curvature:  -0.20 expect dE=-0.473E+00 dE for cont linesearch -0.147E-05
 trial: gam= 2.89719 g(F)=  0.236E+01 g(S)=  0.000E+00 ort = 0.245E-02 (trialstep = 0.261E-01)
 search vector abs. value=  0.923E+01
 bond charge predicted
       N       E                     dE             d eps       ncg     rms          rms(c)
DAV:   1    -0.386495166854E+03   -0.52828E-01   -0.15221E+00  7840   0.164E+00    0.317E-01
RMM:   2    -0.386507185597E+03   -0.12019E-01   -0.24249E-02  7907   0.257E-01    0.126E+00
RMM:   3    -0.386498376837E+03    0.88088E-02   -0.15592E-03  8086   0.523E-02    0.567E-01
RMM:   4    -0.386499387651E+03   -0.10108E-02   -0.16668E-03  7878   0.508E-02    0.666E-01
RMM:   5    -0.386497368068E+03    0.20196E-02   -0.18175E-03  7880   0.518E-02    0.397E-01
RMM:   6    -0.386496795674E+03    0.57239E-03   -0.83031E-04  7876   0.366E-02    0.243E-01
RMM:   7    -0.386496471595E+03    0.32408E-03   -0.33401E-04  7848   0.231E-02    0.129E-01
RMM:   8    -0.386496375727E+03    0.95868E-04   -0.11310E-04  7803   0.134E-02    0.522E-02
RMM:   9    -0.386496364180E+03    0.11546E-04   -0.28862E-05  4674   0.711E-03    0.286E-02
RMM:  10    -0.386496369647E+03   -0.54671E-05   -0.14374E-05  4221   0.527E-03
  18 F= -.38649637E+03 E0= -.38648041E+03  d E =-.540329E-01
 ZBRENT: can't locate minimum, use default step
 trial-energy change:   -0.054033  1 .order   -0.054470   -0.061859   -0.047082
 step:   0.1044(harm=  0.1093)  dis= 0.02452  next Energy=  -386.571808 (dE=-0.129E+00)
 bond charge predicted
       N       E                     dE             d eps       ncg     rms          rms(c)
DAV:   1    -0.386562975075E+03   -0.66611E-01   -0.13690E+01  7840   0.490E+00    0.953E-01
RMM:   2    -0.386671178536E+03   -0.10820E+00   -0.21677E-01  7906   0.771E-01    0.377E+00
RMM:   3    -0.386593906847E+03    0.77272E-01   -0.13774E-02  8110   0.156E-01    0.174E+00
RMM:   4    -0.386600098188E+03   -0.61913E-02   -0.15005E-02  7884   0.152E-01    0.196E+00
RMM:   5    -0.386583585945E+03    0.16512E-01   -0.15604E-02  7884   0.152E-01    0.120E+00
RMM:   6    -0.386577610153E+03    0.59758E-02   -0.69164E-03  7882   0.107E-01    0.651E-01
RMM:   7    -0.386574796802E+03    0.28134E-02   -0.26460E-03  7888   0.652E-02    0.342E-01
RMM:   8    -0.386574179401E+03    0.61740E-03   -0.78745E-04  7891   0.352E-02    0.166E-01
RMM:   9    -0.386574029644E+03    0.14976E-03   -0.26548E-04  7839   0.204E-02    0.788E-02
RMM:  10    -0.386574074344E+03   -0.44700E-04   -0.12683E-04  7834   0.138E-02    0.846E-02
RMM:  11    -0.386574099671E+03   -0.25326E-04   -0.82394E-05  7762   0.112E-02    0.534E-02
RMM:  12    -0.386574135447E+03   -0.35776E-04   -0.37696E-05  5250   0.803E-03    0.269E-02
RMM:  13    -0.386574212243E+03   -0.76796E-04   -0.25350E-05  4463   0.676E-03    0.228E-02
RMM:  14    -0.386574264799E+03   -0.52556E-04   -0.12577E-05  4338   0.503E-03    0.165E-02
RMM:  15    -0.386574306787E+03   -0.41988E-04   -0.60300E-06  4288   0.327E-03    0.166E-02
RMM:  16    -0.386574354151E+03   -0.47364E-04   -0.49866E-06  4301   0.263E-03    0.708E-03
RMM:  17    -0.386574378167E+03   -0.24016E-04   -0.18348E-06  3023   0.165E-03    0.575E-03
RMM:  18    -0.386574434922E+03   -0.56755E-04   -0.53955E-06  4298   0.229E-03    0.785E-03
RMM:  19    -0.386574466328E+03   -0.31406E-04   -0.26978E-06  2675   0.163E-03    0.551E-03
RMM:  20    -0.386574484771E+03   -0.18443E-04   -0.15719E-06  2504   0.145E-03    0.351E-03
RMM:  21    -0.386574511139E+03   -0.26367E-04   -0.25278E-06  2990   0.156E-03    0.217E-03
RMM:  22    -0.386574523604E+03   -0.12466E-04   -0.63475E-07  1298   0.114E-03    0.175E-03
RMM:  23    -0.386574542246E+03   -0.18642E-04   -0.22448E-06  3137   0.151E-03    0.191E-03
RMM:  24    -0.386574548884E+03   -0.66375E-05   -0.46024E-07  1320   0.101E-03
  19 F= -.38657455E+03 E0= -.38655982E+03  d E =-.132212E+00
 curvature:  -0.21 expect dE=-0.350E-01 dE for cont linesearch -0.129E-02
 ZBRENT: extrapolating
 opt :   0.1163  next Energy=  -386.575947 (dE=-0.134E+00)
 bond charge predicted
       N       E                     dE             d eps       ncg     rms          rms(c)
DAV:   1    -0.386575616601E+03   -0.10744E-02   -0.31148E-01  7888   0.742E-01    0.145E-01
RMM:   2    -0.386578033928E+03   -0.24173E-02   -0.52194E-03  7908   0.118E-01    0.562E-01
RMM:   3    -0.386576314432E+03    0.17195E-02   -0.31304E-04  8081   0.236E-02    0.266E-01
RMM:   4    -0.386576473923E+03   -0.15949E-03   -0.34140E-04  7887   0.230E-02    0.299E-01
RMM:   5    -0.386576133287E+03    0.34064E-03   -0.36878E-04  7855   0.234E-02    0.191E-01
RMM:   6    -0.386575979731E+03    0.15356E-03   -0.16380E-04  7841   0.164E-02    0.100E-01
RMM:   7    -0.386575921368E+03    0.58363E-04   -0.62597E-05  7079   0.101E-02    0.542E-02
RMM:   8    -0.386575908491E+03    0.12877E-04   -0.17795E-05  4352   0.574E-03    0.276E-02
RMM:   9    -0.386575905006E+03    0.34850E-05   -0.68014E-06  4147   0.372E-03
  20 F= -.38657591E+03 E0= -.38656135E+03  d E =-.133568E+00
 curvature:  -0.23 expect dE=-0.398E-01 dE for cont linesearch -0.330E-05
 trial: gam= 0.05912 g(F)=  0.172E+00 g(S)=  0.000E+00 ort = 0.115E-01 (trialstep = 0.441E-01)
 search vector abs. value=  0.206E+00
 bond charge predicted
       N       E                     dE             d eps       ncg     rms          rms(c)
DAV:   1    -0.386583218449E+03   -0.73100E-02   -0.10014E-01  7904   0.399E-01    0.768E-02
RMM:   2    -0.386583377044E+03   -0.15860E-03   -0.16776E-03  7899   0.637E-02    0.900E-02
RMM:   3    -0.386583680390E+03   -0.30335E-03   -0.18379E-04  7835   0.170E-02    0.220E-01
RMM:   4    -0.386583412698E+03    0.26769E-03   -0.11482E-04  7615   0.129E-02    0.106E-01
RMM:   5    -0.386583375992E+03    0.36706E-04   -0.70791E-05  7372   0.107E-02    0.755E-02
RMM:   6    -0.386583348319E+03    0.27672E-04   -0.32564E-05  4956   0.760E-03    0.338E-02
RMM:   7    -0.386583345003E+03    0.33160E-05   -0.13820E-05  4207   0.537E-03
  21 F= -.38658335E+03 E0= -.38656881E+03  d E =-.744000E-02
 ZBRENT: can't locate minimum, use default step
 trial-energy change:   -0.007440  1 .order   -0.007435   -0.007637   -0.007234
 step:   0.1766(harm=  0.8368)  dis= 0.00625  next Energy=  -386.648294 (dE=-0.724E-01)
 bond charge predicted
       N       E                     dE             d eps       ncg     rms          rms(c)
DAV:   1    -0.386601934320E+03   -0.18586E-01   -0.90213E-01  7840   0.120E+00    0.226E-01
RMM:   2    -0.386603217060E+03   -0.12827E-02   -0.14864E-02  7894   0.190E-01    0.238E-01
RMM:   3    -0.386606076416E+03   -0.28594E-02   -0.16424E-03  7948   0.510E-02    0.666E-01
RMM:   4    -0.386603644719E+03    0.24317E-02   -0.97329E-04  7907   0.370E-02    0.323E-01
RMM:   5    -0.386603282457E+03    0.36226E-03   -0.62195E-04  7867   0.311E-02    0.242E-01
RMM:   6    -0.386602956997E+03    0.32546E-03   -0.29938E-04  7834   0.219E-02    0.885E-02
RMM:   7    -0.386602931209E+03    0.25788E-04   -0.12462E-04  7788   0.142E-02    0.600E-02
RMM:   8    -0.386602925253E+03    0.59561E-05   -0.46250E-05  6138   0.899E-03
  22 F= -.38660293E+03 E0= -.38658845E+03  d E =-.270202E-01
 curvature:  -0.15 expect dE=-0.159E-01 dE for cont linesearch -0.131E-01
 ZBRENT: increasing intervall
 opt :   0.4414  next Energy=  -386.630058 (dE=-0.542E-01)
 bond charge predicted
       N       E                     dE             d eps       ncg     rms          rms(c)
DAV:   1    -0.386626592386E+03   -0.23661E-01   -0.36100E+00  7840   0.240E+00    0.435E-01
RMM:   2    -0.386631867311E+03   -0.52749E-02   -0.59561E-02  7894   0.381E-01    0.478E-01
RMM:   3    -0.386642793066E+03   -0.10926E-01   -0.62497E-03  7956   0.991E-02    0.131E+00
RMM:   4    -0.386632673331E+03    0.10120E-01   -0.36162E-03  7910   0.720E-02    0.543E-01
RMM:   5    -0.386632005531E+03    0.66780E-03   -0.21780E-03  7876   0.582E-02    0.472E-01
RMM:   6    -0.386630626580E+03    0.13790E-02   -0.11218E-03  7877   0.423E-02    0.141E-01
RMM:   7    -0.386630632170E+03   -0.55901E-05   -0.46130E-04  7854   0.273E-02    0.126E-01
RMM:   8    -0.386630573633E+03    0.58538E-04   -0.16519E-04  7821   0.169E-02    0.102E-01
RMM:   9    -0.386630506097E+03    0.67536E-04   -0.50860E-05  6618   0.947E-03    0.306E-02
RMM:  10    -0.386630504915E+03    0.11821E-05   -0.16465E-05  4292   0.548E-03
  23 F= -.38663050E+03 E0= -.38661629E+03  d E =-.545999E-01
 curvature:  -0.32 expect dE=-0.160E-01 dE for cont linesearch -0.952E-02
 ZBRENT: increasing intervall
 opt :   0.9710  next Energy=  -386.643512 (dE=-0.676E-01)
 bond charge predicted
       N       E                     dE             d eps       ncg     rms          rms(c)
DAV:   1    -0.386628395496E+03    0.21106E-02   -0.14467E+01  7840   0.482E+00    0.818E-01
RMM:   2    -0.386651523274E+03   -0.23128E-01   -0.23639E-01  7896   0.762E-01    0.106E+00
RMM:   3    -0.386679383281E+03   -0.27860E-01   -0.22103E-02  7974   0.187E-01    0.218E+00
RMM:   4    -0.386652009534E+03    0.27374E-01   -0.12846E-02  7909   0.137E-01    0.979E-01
RMM:   5    -0.386649553222E+03    0.24563E-02   -0.76358E-03  7876   0.109E-01    0.855E-01
RMM:   6    -0.386645139113E+03    0.44141E-02   -0.39676E-03  7876   0.794E-02    0.324E-01
RMM:   7    -0.386645043049E+03    0.96064E-04   -0.18685E-03  7870   0.550E-02    0.257E-01
RMM:   8    -0.386644741149E+03    0.30190E-03   -0.67471E-04  7868   0.346E-02    0.182E-01
RMM:   9    -0.386644528355E+03    0.21279E-03   -0.17738E-04  7830   0.174E-02    0.646E-02
RMM:  10    -0.386644517902E+03    0.10453E-04   -0.74786E-05  7528   0.108E-02    0.530E-02
RMM:  11    -0.386644499784E+03    0.18118E-04   -0.55424E-05  6776   0.924E-03    0.289E-02
RMM:  12    -0.386644501517E+03   -0.17323E-05   -0.13060E-05  4227   0.506E-03
  24 F= -.38664450E+03 E0= -.38663072E+03  d E =-.685965E-01
 curvature:  -0.43 expect dE=-0.265E-01 dE for cont linesearch -0.109E-02
 ZBRENT: bracketing found
 ZBRENT: interpolating
 opt :   0.8522  next Energy=  -386.645858 (dE=-0.700E-01)
 bond charge predicted
       N       E                     dE             d eps       ncg     rms          rms(c)
DAV:   1    -0.386645130201E+03   -0.63042E-03   -0.72974E-01  7888   0.109E+00    0.180E-01
RMM:   2    -0.386646300229E+03   -0.11700E-02   -0.11878E-02  7894   0.171E-01    0.234E-01
RMM:   3    -0.386647608223E+03   -0.13080E-02   -0.11349E-03  7943   0.427E-02    0.476E-01
RMM:   4    -0.386646598750E+03    0.10095E-02   -0.63562E-04  7896   0.300E-02    0.304E-01
RMM:   5    -0.386646164813E+03    0.43394E-03   -0.37578E-04  7854   0.244E-02    0.167E-01
RMM:   6    -0.386646026095E+03    0.13872E-03   -0.21925E-04  7836   0.186E-02    0.726E-02
RMM:   7    -0.386646024662E+03    0.14330E-05   -0.10067E-04  7713   0.128E-02    0.633E-02
RMM:   8    -0.386646028273E+03   -0.36109E-05   -0.37945E-05  5414   0.824E-03
  25 F= -.38664603E+03 E0= -.38663216E+03  d E =-.701233E-01
 curvature:  -0.54 expect dE=-0.256E-01 dE for cont linesearch -0.604E-06
 trial: gam= 0.26422 g(F)=  0.477E-01 g(S)=  0.000E+00 ort =-0.482E-03 (trialstep = 0.206E+00)
 search vector abs. value=  0.618E-01
 bond charge predicted
       N       E                     dE             d eps       ncg     rms          rms(c)
DAV:   1    -0.386654342849E+03   -0.83182E-02   -0.55890E-01  7840   0.977E-01    0.150E-01
RMM:   2    -0.386655489173E+03   -0.11463E-02   -0.96550E-03  7911   0.141E-01    0.234E-01
RMM:   3    -0.386655779422E+03   -0.29025E-03   -0.71209E-04  7964   0.331E-02    0.309E-01
RMM:   4    -0.386655487937E+03    0.29149E-03   -0.46744E-04  7904   0.264E-02    0.239E-01
RMM:   5    -0.386655172217E+03    0.31572E-03   -0.23530E-04  7850   0.195E-02    0.102E-01
RMM:   6    -0.386655194663E+03   -0.22446E-04   -0.13323E-04  7844   0.146E-02    0.101E-01
RMM:   7    -0.386655176510E+03    0.18153E-04   -0.73190E-05  7453   0.110E-02    0.670E-02
RMM:   8    -0.386655141435E+03    0.35075E-04   -0.29385E-05  4843   0.738E-03    0.232E-02
RMM:   9    -0.386655142694E+03   -0.12593E-05   -0.91712E-06  4097   0.420E-03
  26 F= -.38665514E+03 E0= -.38664132E+03  d E =-.911442E-02
 ZBRENT: can't locate minimum, use default step
 trial-energy change:   -0.009114  1 .order   -0.008956   -0.009778   -0.008133
 step:   0.8230(harm=  1.2227)  dis= 0.01399  next Energy=  -386.675084 (dE=-0.291E-01)
 bond charge predicted
       N       E                     dE             d eps       ncg     rms          rms(c)
DAV:   1    -0.386666215364E+03   -0.11074E-01   -0.50273E+00  7840   0.291E+00    0.451E-01
RMM:   2    -0.386677074668E+03   -0.10859E-01   -0.87274E-02  7909   0.423E-01    0.738E-01
RMM:   3    -0.386678810973E+03   -0.17363E-02   -0.63635E-03  7975   0.987E-02    0.878E-01
RMM:   4    -0.386676521520E+03    0.22895E-02   -0.41664E-03  7910   0.791E-02    0.687E-01
RMM:   5    -0.386673769687E+03    0.27518E-02   -0.21628E-03  7873   0.588E-02    0.317E-01
RMM:   6    -0.386673842624E+03   -0.72937E-04   -0.12410E-03  7877   0.443E-02    0.296E-01
RMM:   7    -0.386673646980E+03    0.19564E-03   -0.68160E-04  7865   0.332E-02    0.203E-01
RMM:   8    -0.386673324677E+03    0.32230E-03   -0.30972E-04  7854   0.228E-02    0.683E-02
RMM:   9    -0.386673326675E+03   -0.19987E-05   -0.76229E-05  7643   0.111E-02
  27 F= -.38667333E+03 E0= -.38665961E+03  d E =-.272984E-01
 curvature:  -0.67 expect dE=-0.775E-01 dE for cont linesearch -0.358E-02
 ZBRENT: increasing intervall
 opt :   2.0574  next Energy=  -386.669333 (dE=-0.233E-01)
 bond charge predicted
       N       E                     dE             d eps       ncg     rms          rms(c)
DAV:   1    -0.386642027863E+03    0.31297E-01   -0.20103E+01  7840   0.577E+00    0.908E-01
RMM:   2    -0.386683665557E+03   -0.41638E-01   -0.34890E-01  7902   0.843E-01    0.136E+00
RMM:   3    -0.386699516591E+03   -0.15851E-01   -0.26832E-02  7990   0.201E-01    0.198E+00
RMM:   4    -0.386685043655E+03    0.14473E-01   -0.17071E-02  7903   0.159E-01    0.143E+00
RMM:   5    -0.386672400682E+03    0.12643E-01   -0.92219E-03  7866   0.121E-01    0.634E-01
RMM:   6    -0.386672576495E+03   -0.17581E-03   -0.49420E-03  7874   0.883E-02    0.608E-01
RMM:   7    -0.386671665715E+03    0.91078E-03   -0.28328E-03  7873   0.676E-02    0.400E-01
RMM:   8    -0.386670369641E+03    0.12961E-02   -0.12941E-03  7862   0.467E-02    0.130E-01
RMM:   9    -0.386670362632E+03    0.70084E-05   -0.30700E-04  7855   0.223E-02    0.122E-01
RMM:  10    -0.386670295493E+03    0.67140E-04   -0.14778E-04  7840   0.152E-02    0.904E-02
RMM:  11    -0.386670246254E+03    0.49239E-04   -0.40080E-05  5638   0.844E-03    0.271E-02
RMM:  12    -0.386670256967E+03   -0.10714E-04   -0.16373E-05  4243   0.566E-03    0.245E-02
RMM:  13    -0.386670269895E+03   -0.12928E-04   -0.87794E-06  4178   0.429E-03    0.187E-02
RMM:  14    -0.386670278474E+03   -0.85791E-05   -0.43688E-06  4136   0.311E-03
  28 F= -.38667028E+03 E0= -.38665666E+03  d E =-.242502E-01
 curvature:   0.75 expect dE= 0.561E+00 dE for cont linesearch  0.740E-02
 ZBRENT: bracketing found
 ZBRENT: interpolating
 opt :   1.3458  next Energy=  -386.678070 (dE=-0.320E-01)
 bond charge predicted
       N       E                     dE             d eps       ncg     rms          rms(c)
DAV:   1    -0.386669559014E+03    0.71088E-03   -0.66671E+00  7840   0.330E+00    0.528E-01
RMM:   2    -0.386683912053E+03   -0.14353E-01   -0.11131E-01  7893   0.482E-01    0.882E-01
RMM:   3    -0.386686253917E+03   -0.23419E-02   -0.85263E-03  7957   0.113E-01    0.104E+00
RMM:   4    -0.386682882613E+03    0.33713E-02   -0.56691E-03  7911   0.921E-02    0.810E-01
RMM:   5    -0.386679208802E+03    0.36738E-02   -0.29064E-03  7880   0.686E-02    0.362E-01
RMM:   6    -0.386679252582E+03   -0.43780E-04   -0.16325E-03  7873   0.509E-02    0.324E-01
RMM:   7    -0.386679018041E+03    0.23454E-03   -0.87229E-04  7882   0.377E-02    0.227E-01
RMM:   8    -0.386678632801E+03    0.38524E-03   -0.36878E-04  7854   0.248E-02    0.813E-02
RMM:   9    -0.386678630349E+03    0.24519E-05   -0.96978E-05  7779   0.124E-02
  29 F= -.38667863E+03 E0= -.38666490E+03  d E =-.326021E-01
 curvature:  -0.48 expect dE=-0.145E+00 dE for cont linesearch -0.163E-05
 trial: gam= 6.32426 g(F)=  0.303E+00 g(S)=  0.000E+00 ort = 0.457E-03 (trialstep = 0.964E-02)
 search vector abs. value=  0.278E+01
 bond charge predicted
       N       E                     dE             d eps       ncg     rms          rms(c)
DAV:   1    -0.386681474011E+03   -0.28412E-02   -0.45998E-02  7936   0.279E-01    0.721E-02
RMM:   2    -0.386682296714E+03   -0.82270E-03   -0.10043E-03  7892   0.467E-02    0.326E-01
RMM:   3    -0.386681764652E+03    0.53206E-03   -0.23784E-04  7884   0.186E-02    0.201E-01
RMM:   4    -0.386681533186E+03    0.23147E-03   -0.11285E-04  7779   0.130E-02    0.799E-02
RMM:   5    -0.386681512551E+03    0.20636E-04   -0.32799E-05  4929   0.768E-03    0.483E-02
RMM:   6    -0.386681509959E+03    0.25916E-05   -0.27358E-05  4453   0.743E-03
  30 F= -.38668151E+03 E0= -.38666780E+03  d E =-.287961E-02
 ZBRENT: can't locate minimum, use default step
 trial-energy change:   -0.002880  1 .order   -0.002878   -0.002947   -0.002808
 step:   0.0386(harm=  0.2044)  dis= 0.00416  next Energy=  -386.709878 (dE=-0.312E-01)
 bond charge predicted
       N       E                     dE             d eps       ncg     rms          rms(c)
DAV:   1    -0.386688967403E+03   -0.74549E-02   -0.41042E-01  7840   0.827E-01    0.161E-01
RMM:   2    -0.386689720716E+03   -0.75331E-03   -0.61278E-03  7892   0.121E-01    0.241E-01
RMM:   3    -0.386689954484E+03   -0.23377E-03   -0.68713E-04  7979   0.325E-02    0.291E-01
RMM:   4    -0.386690424260E+03   -0.46978E-03   -0.42731E-04  7876   0.237E-02    0.396E-01
RMM:   5    -0.386689417436E+03    0.10068E-02   -0.30379E-04  7842   0.219E-02    0.876E-02
RMM:   6    -0.386689454876E+03   -0.37439E-04   -0.20932E-04  7835   0.183E-02    0.912E-02
RMM:   7    -0.386689425842E+03    0.29034E-04   -0.79832E-05  7633   0.113E-02    0.679E-02
RMM:   8    -0.386689402567E+03    0.23275E-04   -0.31994E-05  5051   0.751E-03    0.336E-02
RMM:   9    -0.386689396957E+03    0.56103E-05   -0.11769E-05  4145   0.495E-03
  31 F= -.38668940E+03 E0= -.38667575E+03  d E =-.107666E-01
 curvature:  -0.26 expect dE=-0.491E-01 dE for cont linesearch -0.555E-02
 ZBRENT: increasing intervall
 opt :   0.0964  next Energy=  -386.700970 (dE=-0.223E-01)
 bond charge predicted
       N       E                     dE             d eps       ncg     rms          rms(c)
DAV:   1    -0.386699353940E+03   -0.99514E-02   -0.16402E+00  7840   0.165E+00    0.305E-01
RMM:   2    -0.386702458235E+03   -0.31043E-02   -0.23756E-02  7893   0.241E-01    0.466E-01
RMM:   3    -0.386703156515E+03   -0.69828E-03   -0.22595E-03  8040   0.571E-02    0.558E-01
RMM:   4    -0.386701961206E+03    0.11953E-02   -0.14696E-03  7897   0.471E-02    0.372E-01
RMM:   5    -0.386701547846E+03    0.41336E-03   -0.11500E-03  7871   0.426E-02    0.274E-01
RMM:   6    -0.386701389738E+03    0.15811E-03   -0.72165E-04  7882   0.338E-02    0.210E-01
RMM:   7    -0.386701151010E+03    0.23873E-03   -0.32861E-04  7853   0.232E-02    0.952E-02
RMM:   8    -0.386701116330E+03    0.34680E-04   -0.11928E-04  7797   0.139E-02    0.695E-02
RMM:   9    -0.386701088203E+03    0.28127E-04   -0.38176E-05  5522   0.815E-03    0.354E-02
RMM:  10    -0.386701086074E+03    0.21292E-05   -0.13686E-05  4217   0.521E-03
  32 F= -.38670109E+03 E0= -.38668749E+03  d E =-.224557E-01
 curvature:  -0.53 expect dE=-0.419E-01 dE for cont linesearch -0.443E-02
 ZBRENT: increasing intervall
 opt :   0.2121  next Energy=  -386.707848 (dE=-0.292E-01)
 bond charge predicted
       N       E                     dE             d eps       ncg     rms          rms(c)
DAV:   1    -0.386701110087E+03   -0.21884E-04   -0.65528E+00  7840   0.332E+00    0.611E-01
RMM:   2    -0.386713274280E+03   -0.12164E-01   -0.95268E-02  7896   0.484E-01    0.905E-01
RMM:   3    -0.386717782832E+03   -0.45086E-02   -0.92749E-03  8023   0.116E-01    0.118E+00
RMM:   4    -0.386712454660E+03    0.53282E-02   -0.60002E-03  7903   0.949E-02    0.817E-01
RMM:   5    -0.386709772508E+03    0.26822E-02   -0.45672E-03  7879   0.850E-02    0.527E-01
RMM:   6    -0.386709407083E+03    0.36543E-03   -0.30455E-03  7880   0.694E-02    0.433E-01
RMM:   7    -0.386708363279E+03    0.10438E-02   -0.13567E-03  7876   0.472E-02    0.192E-01
RMM:   8    -0.386708208628E+03    0.15465E-03   -0.50621E-04  7868   0.286E-02    0.142E-01
RMM:   9    -0.386708091054E+03    0.11757E-03   -0.17239E-04  7826   0.169E-02    0.728E-02
RMM:  10    -0.386708075543E+03    0.15511E-04   -0.60427E-05  7070   0.994E-03    0.539E-02
RMM:  11    -0.386708067288E+03    0.82547E-05   -0.21588E-05  4372   0.646E-03
  33 F= -.38670807E+03 E0= -.38669464E+03  d E =-.294369E-01
 curvature:  -0.81 expect dE=-0.285E-01 dE for cont linesearch -0.460E-03
 ZBRENT: bracketing found
 ZBRENT: interpolating
 opt :   0.1882  next Energy=  -386.708542 (dE=-0.299E-01)
 bond charge predicted
       N       E                     dE             d eps       ncg     rms          rms(c)
DAV:   1    -0.386708146113E+03   -0.70571E-04   -0.28084E-01  7904   0.696E-01    0.127E-01
RMM:   2    -0.386708727260E+03   -0.58115E-03   -0.41355E-03  7898   0.100E-01    0.201E-01
RMM:   3    -0.386708880155E+03   -0.15289E-03   -0.39331E-04  8010   0.243E-02    0.243E-01
RMM:   4    -0.386708696652E+03    0.18350E-03   -0.26453E-04  7867   0.198E-02    0.186E-01
RMM:   5    -0.386708564169E+03    0.13248E-03   -0.20160E-04  7836   0.179E-02    0.111E-01
RMM:   6    -0.386708567820E+03   -0.36510E-05   -0.14388E-04  7830   0.151E-02    0.911E-02
RMM:   7    -0.386708525087E+03    0.42733E-04   -0.60842E-05  7057   0.102E-02    0.314E-02
RMM:   8    -0.386708528047E+03   -0.29599E-05   -0.17316E-05  4347   0.575E-03
  34 F= -.38670853E+03 E0= -.38669502E+03  d E =-.298977E-01
 curvature:  -0.84 expect dE=-0.200E-01 dE for cont linesearch -0.179E-07
 trial: gam= 0.07815 g(F)=  0.238E-01 g(S)=  0.000E+00 ort =-0.243E-03 (trialstep = 0.453E-01)
 search vector abs. value=  0.408E-01
 bond charge predicted
       N       E                     dE             d eps       ncg     rms          rms(c)
DAV:   1    -0.386709604964E+03   -0.10799E-02   -0.15512E-02  7984   0.158E-01    0.308E-02
RMM:   2    -0.386709651920E+03   -0.46955E-04   -0.27767E-04  7863   0.232E-02    0.583E-02
RMM:   3    -0.386709636394E+03    0.15525E-04   -0.31073E-05  4650   0.767E-03    0.374E-02
RMM:   4    -0.386709672267E+03   -0.35872E-04   -0.13665E-05  4282   0.514E-03    0.740E-02
RMM:   5    -0.386709638593E+03    0.33674E-04   -0.77708E-06  4139   0.388E-03    0.324E-02
RMM:   6    -0.386709636177E+03    0.24161E-05   -0.49190E-06  4037   0.327E-03
  35 F= -.38670964E+03 E0= -.38669616E+03  d E =-.110813E-02
 ZBRENT: can't locate minimum, use default step
 trial-energy change:   -0.001108  1 .order   -0.001074   -0.001080   -0.001068
 step:   0.1814(harm=  3.9452)  dis= 0.00143  next Energy=  -386.755513 (dE=-0.470E-01)
 bond charge predicted
       N       E                     dE             d eps       ncg     rms          rms(c)
DAV:   1    -0.386712683372E+03   -0.30448E-02   -0.13950E-01  7856   0.474E-01    0.850E-02
RMM:   2    -0.386712929616E+03   -0.24624E-03   -0.23698E-03  7911   0.672E-02    0.993E-02
RMM:   3    -0.386713124504E+03   -0.19489E-03   -0.23992E-04  7920   0.193E-02    0.191E-01
RMM:   4    -0.386713103754E+03    0.20750E-04   -0.13082E-04  7734   0.132E-02    0.190E-01
RMM:   5    -0.386712881489E+03    0.22226E-03   -0.80651E-05  7578   0.113E-02    0.576E-02
RMM:   6    -0.386712891645E+03   -0.10155E-04   -0.46051E-05  6077   0.874E-03    0.551E-02
RMM:   7    -0.386712885588E+03    0.60565E-05   -0.23896E-05  4428   0.684E-03
  36 F= -.38671289E+03 E0= -.38669949E+03  d E =-.435754E-02
 curvature:  -0.23 expect dE=-0.508E-02 dE for cont linesearch -0.295E-02
 ZBRENT: increasing intervall
 opt :   0.4535  next Energy=  -386.718885 (dE=-0.104E-01)
 bond charge predicted
       N       E                     dE             d eps       ncg     rms          rms(c)
DAV:   1    -0.386718239889E+03   -0.53482E-02   -0.55752E-01  7840   0.947E-01    0.166E-01
RMM:   2    -0.386719232364E+03   -0.99248E-03   -0.94235E-03  7912   0.134E-01    0.195E-01
RMM:   3    -0.386720365358E+03   -0.11330E-02   -0.93821E-04  7958   0.377E-02    0.441E-01
RMM:   4    -0.386719475406E+03    0.88995E-03   -0.51313E-04  7912   0.266E-02    0.280E-01
RMM:   5    -0.386719058917E+03    0.41649E-03   -0.30032E-04  7858   0.220E-02    0.126E-01
RMM:   6    -0.386719050935E+03    0.79822E-05   -0.16909E-04  7841   0.163E-02    0.990E-02
RMM:   7    -0.386719018195E+03    0.32739E-04   -0.79054E-05  7699   0.116E-02    0.560E-02
RMM:   8    -0.386719003806E+03    0.14389E-04   -0.32381E-05  5034   0.767E-03    0.384E-02
RMM:   9    -0.386719000513E+03    0.32935E-05   -0.13617E-05  4208   0.512E-03
  37 F= -.38671900E+03 E0= -.38670563E+03  d E =-.104725E-01
 curvature:  -0.47 expect dE=-0.895E-02 dE for cont linesearch -0.513E-02
 ZBRENT: increasing intervall
 opt :   0.9976  next Energy=  -386.729542 (dE=-0.210E-01)
 bond charge predicted
       N       E                     dE             d eps       ncg     rms          rms(c)
DAV:   1    -0.386726584986E+03   -0.75812E-02   -0.22306E+00  7840   0.189E+00    0.328E-01
RMM:   2    -0.386730584301E+03   -0.39993E-02   -0.37626E-02  7913   0.268E-01    0.399E-01
RMM:   3    -0.386734581709E+03   -0.39974E-02   -0.36044E-03  7968   0.737E-02    0.842E-01
RMM:   4    -0.386731942813E+03    0.26389E-02   -0.20651E-03  7935   0.533E-02    0.602E-01
RMM:   5    -0.386729790780E+03    0.21520E-02   -0.11950E-03  7874   0.436E-02    0.220E-01
RMM:   6    -0.386729847380E+03   -0.56600E-04   -0.71328E-04  7874   0.336E-02    0.193E-01
RMM:   7    -0.386729710240E+03    0.13714E-03   -0.33400E-04  7855   0.235E-02    0.122E-01
RMM:   8    -0.386729631701E+03    0.78540E-04   -0.14734E-04  7831   0.155E-02    0.720E-02
RMM:   9    -0.386729621583E+03    0.10118E-04   -0.56830E-05  6803   0.960E-03    0.551E-02
RMM:  10    -0.386729603949E+03    0.17633E-04   -0.18662E-05  4343   0.607E-03    0.299E-02
RMM:  11    -0.386729597416E+03    0.65336E-05   -0.60270E-06  4085   0.358E-03
  38 F= -.38672960E+03 E0= -.38671634E+03  d E =-.210694E-01
 curvature:  -0.97 expect dE=-0.138E-01 dE for cont linesearch -0.642E-02
 ZBRENT: increasing intervall
 opt :   2.0859  next Energy=  -386.742467 (dE=-0.339E-01)
 bond charge predicted
       N       E                     dE             d eps       ncg     rms          rms(c)
DAV:   1    -0.386732844655E+03   -0.32407E-02   -0.89222E+00  7840   0.379E+00    0.657E-01
RMM:   2    -0.386749175578E+03   -0.16331E-01   -0.15097E-01  7916   0.536E-01    0.809E-01
RMM:   3    -0.386765555192E+03   -0.16380E-01   -0.14417E-02  7972   0.147E-01    0.170E+00
RMM:   4    -0.386754103142E+03    0.11452E-01   -0.82989E-03  7936   0.107E-01    0.118E+00
RMM:   5    -0.386745804315E+03    0.82988E-02   -0.47034E-03  7879   0.865E-02    0.446E-01
RMM:   6    -0.386745863191E+03   -0.58876E-04   -0.28531E-03  7876   0.674E-02    0.378E-01
RMM:   7    -0.386745394648E+03    0.46854E-03   -0.12976E-03  7882   0.466E-02    0.249E-01
RMM:   8    -0.386745066102E+03    0.32855E-03   -0.55731E-04  7857   0.302E-02    0.143E-01
RMM:   9    -0.386745030352E+03    0.35750E-04   -0.23190E-04  7830   0.192E-02    0.110E-01
RMM:  10    -0.386744951612E+03    0.78740E-04   -0.82690E-05  7717   0.119E-02    0.539E-02
RMM:  11    -0.386744930132E+03    0.21480E-04   -0.21302E-05  4377   0.625E-03    0.215E-02
RMM:  12    -0.386744929590E+03    0.54198E-06   -0.10361E-05  4132   0.451E-03
  39 F= -.38674493E+03 E0= -.38673189E+03  d E =-.364015E-01
 curvature:  -1.94 expect dE=-0.314E-01 dE for cont linesearch -0.440E-02
 ZBRENT: increasing intervall
 opt :   4.2625  next Energy=  -386.751014 (dE=-0.425E-01)
 bond charge predicted
       N       E                     dE             d eps       ncg     rms          rms(c)
DAV:   1    -0.386701777737E+03    0.43152E-01   -0.35660E+01  7840   0.759E+00    0.131E+00
RMM:   2    -0.386770798461E+03   -0.69021E-01   -0.61431E-01  7913   0.107E+00    0.167E+00
RMM:   3    -0.386836411569E+03   -0.65613E-01   -0.58238E-02  7980   0.292E-01    0.340E+00
RMM:   4    -0.386784847881E+03    0.51564E-01   -0.33275E-02  7925   0.216E-01    0.220E+00
RMM:   5    -0.386755812745E+03    0.29035E-01   -0.17990E-02  7881   0.169E-01    0.901E-01
RMM:   6    -0.386755524118E+03    0.28863E-03   -0.11526E-02  7880   0.135E-01    0.777E-01
RMM:   7    -0.386753063329E+03    0.24608E-02   -0.53134E-03  7878   0.941E-02    0.500E-01
RMM:   8    -0.386751783878E+03    0.12795E-02   -0.22595E-03  7879   0.608E-02    0.293E-01
RMM:   9    -0.386751612789E+03    0.17109E-03   -0.97331E-04  7868   0.392E-02    0.219E-01
RMM:  10    -0.386751296227E+03    0.31656E-03   -0.34917E-04  7844   0.244E-02    0.108E-01
RMM:  11    -0.386751214139E+03    0.82089E-04   -0.95123E-05  7757   0.125E-02    0.444E-02
RMM:  12    -0.386751212675E+03    0.14638E-05   -0.39566E-05  5630   0.821E-03
  40 F= -.38675121E+03 E0= -.38673846E+03  d E =-.426846E-01
 curvature:  -2.68 expect dE=-0.140E+00 dE for cont linesearch -0.191E-02
 ZBRENT: bracketing found
 ZBRENT: interpolating
 opt :   3.4811  next Energy=  -386.753319 (dE=-0.448E-01)
 bond charge predicted
       N       E                     dE             d eps       ncg     rms          rms(c)
DAV:   1    -0.386746925257E+03    0.42889E-02   -0.45891E+00  7840   0.272E+00    0.474E-01
RMM:   2    -0.386754792878E+03   -0.78676E-02   -0.73967E-02  7910   0.382E-01    0.583E-01
RMM:   3    -0.386762282689E+03   -0.74898E-02   -0.72796E-03  7960   0.106E-01    0.116E+00
RMM:   4    -0.386758660742E+03    0.36219E-02   -0.43117E-03  7926   0.766E-02    0.949E-01
RMM:   5    -0.386753162472E+03    0.54983E-02   -0.25091E-03  7877   0.631E-02    0.316E-01
RMM:   6    -0.386753218341E+03   -0.55870E-04   -0.15349E-03  7877   0.494E-02    0.273E-01
RMM:   7    -0.386753010406E+03    0.20794E-03   -0.64508E-04  7880   0.329E-02    0.191E-01
RMM:   8    -0.386752837787E+03    0.17262E-03   -0.29417E-04  7846   0.220E-02    0.109E-01
RMM:   9    -0.386752799459E+03    0.38328E-04   -0.12317E-04  7810   0.141E-02    0.655E-02
RMM:  10    -0.386752767161E+03    0.32298E-04   -0.34703E-05  5301   0.799E-03    0.329E-02
RMM:  11    -0.386752760703E+03    0.64584E-05   -0.10079E-05  4145   0.453E-03
  41 F= -.38675276E+03 E0= -.38673993E+03  d E =-.442327E-01
 curvature:  -2.96 expect dE=-0.101E+00 dE for cont linesearch -0.775E-05
 trial: gam= 1.37029 g(F)=  0.343E-01 g(S)=  0.000E+00 ort = 0.327E-03 (trialstep = 0.267E+00)
 search vector abs. value=  0.112E+00
 bond charge predicted
       N       E                     dE             d eps       ncg     rms          rms(c)
DAV:   1    -0.386758905456E+03   -0.61383E-02   -0.17325E+00  7840   0.165E+00    0.236E-01
RMM:   2    -0.386761541605E+03   -0.26361E-02   -0.28151E-02  7939   0.246E-01    0.246E-01
RMM:   3    -0.386761685146E+03   -0.14354E-03   -0.23331E-03  7967   0.624E-02    0.288E-01
RMM:   4    -0.386763275358E+03   -0.15902E-02   -0.83887E-04  7931   0.354E-02    0.554E-01
RMM:   5    -0.386761404223E+03    0.18711E-02   -0.49573E-04  7868   0.265E-02    0.222E-01
RMM:   6    -0.386761298305E+03    0.10592E-03   -0.45943E-04  7846   0.265E-02    0.155E-01
RMM:   7    -0.386761210791E+03    0.87514E-04   -0.28542E-04  7844   0.212E-02    0.940E-02
RMM:   8    -0.386761180905E+03    0.29887E-04   -0.11230E-04  7806   0.137E-02    0.711E-02
RMM:   9    -0.386761152548E+03    0.28357E-04   -0.31974E-05  4986   0.758E-03    0.365E-02
RMM:  10    -0.386761144973E+03    0.75748E-05   -0.13607E-05  4177   0.519E-03
  42 F= -.38676114E+03 E0= -.38674833E+03  d E =-.838427E-02
 trial-energy change:   -0.008384  1 .order   -0.008012   -0.009294   -0.006730
 step:   0.5255(harm=  0.9684)  dis= 0.00555  next Energy=  -386.764735 (dE=-0.120E-01)
 bond charge predicted
       N       E                     dE             d eps       ncg     rms          rms(c)
DAV:   1    -0.386764872243E+03   -0.37197E-02   -0.16204E+00  7840   0.159E+00    0.228E-01
RMM:   2    -0.386767371240E+03   -0.24990E-02   -0.26334E-02  7938   0.238E-01    0.252E-01
RMM:   3    -0.386768447420E+03   -0.10762E-02   -0.22321E-03  7965   0.604E-02    0.461E-01
RMM:   4    -0.386768424773E+03    0.22647E-04   -0.83288E-04  7937   0.341E-02    0.463E-01
RMM:   5    -0.386767131090E+03    0.12937E-02   -0.54356E-04  7861   0.293E-02    0.183E-01
RMM:   6    -0.386767111078E+03    0.20012E-04   -0.41527E-04  7847   0.253E-02    0.143E-01
RMM:   7    -0.386767040670E+03    0.70408E-04   -0.26683E-04  7846   0.206E-02    0.869E-02
RMM:   8    -0.386767021523E+03    0.19147E-04   -0.10267E-04  7790   0.131E-02    0.718E-02
RMM:   9    -0.386766992919E+03    0.28604E-04   -0.29403E-05  4799   0.735E-03    0.338E-02
RMM:  10    -0.386766986699E+03    0.62194E-05   -0.12481E-05  4139   0.497E-03
  43 F= -.38676699E+03 E0= -.38675415E+03  d E =-.142260E-01
 curvature:  -0.94 expect dE=-0.180E-01 dE for cont linesearch -0.256E-02
 ZBRENT: increasing intervall
 opt :   1.0421  next Energy=  -386.772045 (dE=-0.193E-01)
 bond charge predicted
       N       E                     dE             d eps       ncg     rms          rms(c)
DAV:   1    -0.386763433074E+03    0.35598E-02   -0.64885E+00  7840   0.319E+00    0.452E-01
RMM:   2    -0.386773601511E+03   -0.10168E-01   -0.10591E-01  7938   0.476E-01    0.491E-01
RMM:   3    -0.386777597615E+03   -0.39961E-02   -0.89176E-03  7962   0.121E-01    0.889E-01
RMM:   4    -0.386778374229E+03   -0.77661E-03   -0.33129E-03  7946   0.679E-02    0.958E-01
RMM:   5    -0.386772629849E+03    0.57444E-02   -0.20770E-03  7864   0.571E-02    0.350E-01
RMM:   6    -0.386772495736E+03    0.13411E-03   -0.16256E-03  7876   0.500E-02    0.287E-01
RMM:   7    -0.386772260843E+03    0.23489E-03   -0.10497E-03  7878   0.408E-02    0.195E-01
RMM:   8    -0.386772144312E+03    0.11653E-03   -0.43286E-04  7852   0.267E-02    0.143E-01
RMM:   9    -0.386772016720E+03    0.12759E-03   -0.14182E-04  7817   0.154E-02    0.639E-02
RMM:  10    -0.386771995605E+03    0.21115E-04   -0.49733E-05  6360   0.906E-03    0.416E-02
RMM:  11    -0.386771985794E+03    0.98103E-05   -0.17254E-05  4334   0.573E-03
  44 F= -.38677199E+03 E0= -.38675914E+03  d E =-.192251E-01
 curvature:  -1.85 expect dE=-0.688E-01 dE for cont linesearch -0.158E-05
 trial: gam= 1.02021 g(F)=  0.372E-01 g(S)=  0.000E+00 ort = 0.309E-03 (trialstep = 0.306E+00)
 search vector abs. value=  0.154E+00
 bond charge predicted
       N       E                     dE             d eps       ncg     rms          rms(c)
DAV:   1    -0.386771913914E+03    0.81690E-04   -0.24870E+00  7840   0.197E+00    0.379E-01
RMM:   2    -0.386775462962E+03   -0.35490E-02   -0.45103E-02  7903   0.298E-01    0.283E-01
RMM:   3    -0.386776759632E+03   -0.12967E-02   -0.36983E-03  7914   0.765E-02    0.528E-01
RMM:   4    -0.386778946487E+03   -0.21869E-02   -0.18115E-03  7922   0.510E-02    0.778E-01
RMM:   5    -0.386775723513E+03    0.32230E-02   -0.14405E-03  7874   0.455E-02    0.396E-01
RMM:   6    -0.386775164872E+03    0.55864E-03   -0.98529E-04  7870   0.396E-02    0.240E-01
RMM:   7    -0.386774798722E+03    0.36615E-03   -0.45272E-04  7861   0.274E-02    0.103E-01
RMM:   8    -0.386774775340E+03    0.23382E-04   -0.15853E-04  7831   0.156E-02    0.837E-02
RMM:   9    -0.386774738112E+03    0.37228E-04   -0.53614E-05  6774   0.969E-03    0.462E-02
RMM:  10    -0.386774730399E+03    0.77124E-05   -0.16785E-05  4361   0.571E-03
  45 F= -.38677473E+03 E0= -.38676196E+03  d E =-.274461E-02
 trial-energy change:   -0.002745  1 .order   -0.002758   -0.011484    0.005968
 step:   0.2014(harm=  0.2014)  dis= 0.00275  next Energy=  -386.775764 (dE=-0.378E-02)
 bond charge predicted
       N       E                     dE             d eps       ncg     rms          rms(c)
DAV:   1    -0.386775349977E+03   -0.61187E-03   -0.29041E-01  7888   0.688E-01    0.132E-01
RMM:   2    -0.386775883493E+03   -0.53352E-03   -0.60043E-03  7895   0.105E-01    0.112E-01
RMM:   3    -0.386776031671E+03   -0.14818E-03   -0.48247E-04  7905   0.278E-02    0.194E-01
RMM:   4    -0.386776284946E+03   -0.25327E-03   -0.23273E-04  7871   0.185E-02    0.268E-01
RMM:   5    -0.386775917051E+03    0.36789E-03   -0.17656E-04  7813   0.157E-02    0.146E-01
RMM:   6    -0.386775863176E+03    0.53875E-04   -0.13988E-04  7825   0.151E-02    0.941E-02
RMM:   7    -0.386775814866E+03    0.48310E-04   -0.60098E-05  6891   0.992E-03    0.457E-02
RMM:   8    -0.386775805852E+03    0.90147E-05   -0.24291E-05  4494   0.672E-03
  46 F= -.38677581E+03 E0= -.38676302E+03  d E =-.382006E-02
 curvature:  -0.41 expect dE=-0.128E-01 dE for cont linesearch -0.856E-05
 trial: gam= 0.83673 g(F)=  0.310E-01 g(S)=  0.000E+00 ort =-0.179E-02 (trialstep = 0.285E+00)
 search vector abs. value=  0.136E+00
 bond charge predicted
       N       E                     dE             d eps       ncg     rms          rms(c)
DAV:   1    -0.386780297695E+03   -0.44828E-02   -0.21958E+00  7840   0.192E+00    0.320E-01
RMM:   2    -0.386784192896E+03   -0.38952E-02   -0.42202E-02  7942   0.268E-01    0.239E-01
RMM:   3    -0.386790285666E+03   -0.60928E-02   -0.37998E-03  7930   0.759E-02    0.964E-01
RMM:   4    -0.386785341656E+03    0.49440E-02   -0.15640E-03  7942   0.470E-02    0.497E-01
RMM:   5    -0.386783842341E+03    0.14993E-02   -0.76918E-04  7879   0.350E-02    0.165E-01
RMM:   6    -0.386784020318E+03   -0.17798E-03   -0.62306E-04  7870   0.312E-02    0.184E-01
RMM:   7    -0.386783866611E+03    0.15371E-03   -0.28809E-04  7855   0.220E-02    0.107E-01
RMM:   8    -0.386783802652E+03    0.63959E-04   -0.89311E-05  7743   0.120E-02    0.458E-02
RMM:   9    -0.386783806910E+03   -0.42582E-05   -0.30901E-05  4946   0.733E-03
  47 F= -.38678381E+03 E0= -.38677100E+03  d E =-.800106E-02
 ZBRENT: can't locate minimum, use default step
 trial-energy change:   -0.008001  1 .order   -0.007670   -0.008402   -0.006939
 step:   1.1405(harm=  1.6373)  dis= 0.02327  next Energy=  -386.799928 (dE=-0.241E-01)
 bond charge predicted
       N       E                     dE             d eps       ncg     rms          rms(c)
DAV:   1    -0.386765465373E+03    0.18337E-01   -0.19839E+01  7840   0.575E+00    0.946E-01
RMM:   2    -0.386801038514E+03   -0.35573E-01   -0.38092E-01  7940   0.804E-01    0.668E-01
RMM:   3    -0.386874272077E+03   -0.73234E-01   -0.33527E-02  7934   0.223E-01    0.327E+00
RMM:   4    -0.386802435160E+03    0.71837E-01   -0.13388E-02  7953   0.139E-01    0.862E-01
RMM:   5    -0.386799998675E+03    0.24365E-02   -0.70480E-03  7865   0.105E-01    0.695E-01
RMM:   6    -0.386799642682E+03    0.35599E-03   -0.48845E-03  7882   0.874E-02    0.548E-01
RMM:   7    -0.386797749805E+03    0.18929E-02   -0.24742E-03  7882   0.652E-02    0.208E-01
RMM:   8    -0.386797612428E+03    0.13738E-03   -0.67149E-04  7872   0.328E-02    0.171E-01
RMM:   9    -0.386797556621E+03    0.55807E-04   -0.26155E-04  7844   0.203E-02    0.138E-01
RMM:  10    -0.386797416908E+03    0.13971E-03   -0.11127E-04  7815   0.138E-02    0.427E-02
RMM:  11    -0.386797411313E+03    0.55948E-05   -0.23198E-05  4418   0.660E-03
  48 F= -.38679741E+03 E0= -.38678461E+03  d E =-.216055E-01
 curvature:  -3.27 expect dE=-0.458E-01 dE for cont linesearch -0.648E-03
 ZBRENT: extrapolating
 opt :   1.3726  next Energy=  -386.798014 (dE=-0.222E-01)
 bond charge predicted
       N       E                     dE             d eps       ncg     rms          rms(c)
DAV:   1    -0.386796101213E+03    0.13157E-02   -0.14603E+00  7840   0.156E+00    0.261E-01
RMM:   2    -0.386798590294E+03   -0.24891E-02   -0.27605E-02  7945   0.219E-01    0.199E-01
RMM:   3    -0.386799482385E+03   -0.89209E-03   -0.22635E-03  7918   0.605E-02    0.432E-01
RMM:   4    -0.386798456979E+03    0.10254E-02   -0.74806E-04  7927   0.359E-02    0.142E-01
RMM:   5    -0.386799573424E+03   -0.11164E-02   -0.46506E-04  7864   0.256E-02    0.413E-01
RMM:   6    -0.386798645246E+03    0.92818E-03   -0.32835E-04  7850   0.210E-02    0.191E-01
RMM:   7    -0.386798453306E+03    0.19194E-03   -0.20371E-04  7836   0.184E-02    0.813E-02
RMM:   8    -0.386798413207E+03    0.40099E-04   -0.54468E-05  6660   0.939E-03    0.321E-02
RMM:   9    -0.386798420453E+03   -0.72463E-05   -0.16798E-05  4376   0.554E-03
  49 F= -.38679842E+03 E0= -.38678560E+03  d E =-.226146E-01
 curvature:  -3.04 expect dE=-0.507E-01 dE for cont linesearch -0.117E-04
 trial: gam= 0.30277 g(F)=  0.167E-01 g(S)=  0.000E+00 ort = 0.725E-03 (trialstep = 0.503E+00)
 search vector abs. value=  0.296E-01
 bond charge predicted
       N       E                     dE             d eps       ncg     rms          rms(c)
DAV:   1    -0.386796503693E+03    0.19095E-02   -0.19498E+00  7840   0.179E+00    0.287E-01
RMM:   2    -0.386800748543E+03   -0.42448E-02   -0.47725E-02  7929   0.272E-01    0.270E-01
RMM:   3    -0.386801652347E+03   -0.90380E-03   -0.29385E-03  7922   0.690E-02    0.494E-01
RMM:   4    -0.386802505833E+03   -0.85349E-03   -0.12506E-03  7929   0.419E-02    0.604E-01
RMM:   5    -0.386800395267E+03    0.21106E-02   -0.96663E-04  7867   0.377E-02    0.300E-01
RMM:   6    -0.386800003082E+03    0.39218E-03   -0.69375E-04  7875   0.333E-02    0.158E-01
RMM:   7    -0.386799887980E+03    0.11510E-03   -0.34601E-04  7858   0.237E-02    0.113E-01
RMM:   8    -0.386799830794E+03    0.57186E-04   -0.11900E-04  7827   0.140E-02    0.852E-02
RMM:   9    -0.386799785222E+03    0.45572E-04   -0.40554E-05  5751   0.846E-03    0.321E-02
RMM:  10    -0.386799783183E+03    0.20396E-05   -0.16108E-05  4309   0.552E-03
  50 F= -.38679978E+03 E0= -.38678700E+03  d E =-.136273E-02
 trial-energy change:   -0.001363  1 .order   -0.001042   -0.008495    0.006411
 step:   0.3020(harm=  0.2865)  dis= 0.00322  next Energy=  -386.801042 (dE=-0.262E-02)
 bond charge predicted
       N       E                     dE             d eps       ncg     rms          rms(c)
DAV:   1    -0.386800524644E+03   -0.73942E-03   -0.31044E-01  7888   0.700E-01    0.117E-01
RMM:   2    -0.386801265931E+03   -0.74129E-03   -0.70181E-03  7929   0.107E-01    0.169E-01
RMM:   3    -0.386801668276E+03   -0.40235E-03   -0.46713E-04  7899   0.266E-02    0.301E-01
RMM:   4    -0.386801157520E+03    0.51076E-03   -0.25276E-04  7885   0.197E-02    0.139E-01
RMM:   5    -0.386801099484E+03    0.58036E-04   -0.15268E-04  7827   0.155E-02    0.104E-01
RMM:   6    -0.386801070842E+03    0.28642E-04   -0.11368E-04  7810   0.136E-02    0.664E-02
RMM:   7    -0.386801062789E+03    0.80530E-05   -0.56435E-05  6738   0.955E-03
  51 F= -.38680106E+03 E0= -.38678822E+03  d E =-.264234E-02
 curvature:  -0.25 expect dE=-0.774E-02 dE for cont linesearch -0.428E-05
 trial: gam= 1.92765 g(F)=  0.310E-01 g(S)=  0.000E+00 ort =-0.713E-03 (trialstep = 0.990E-01)
 search vector abs. value=  0.138E+00
 bond charge predicted
       N       E                     dE             d eps       ncg     rms          rms(c)
DAV:   1    -0.386803443596E+03   -0.23728E-02   -0.32129E-01  7864   0.758E-01    0.951E-02
RMM:   2    -0.386804195480E+03   -0.75188E-03   -0.58446E-03  7956   0.114E-01    0.199E-01
RMM:   3    -0.386804192693E+03    0.27861E-05   -0.45421E-04  7967   0.280E-02    0.200E-01
RMM:   4    -0.386804077981E+03    0.11471E-03   -0.14055E-04  7865   0.144E-02    0.158E-01
RMM:   5    -0.386803921465E+03    0.15652E-03   -0.79085E-05  7721   0.115E-02    0.497E-02
RMM:   6    -0.386803948786E+03   -0.27321E-04   -0.80512E-05  7460   0.113E-02    0.672E-02
RMM:   7    -0.386803943513E+03    0.52729E-05   -0.52708E-05  6534   0.940E-03
  52 F= -.38680394E+03 E0= -.38679118E+03  d E =-.288072E-02
 ZBRENT: can't locate minimum, use default step
 trial-energy change:   -0.002881  1 .order   -0.002759   -0.002937   -0.002582
 step:   0.3960(harm=  0.8197)  dis= 0.00811  next Energy=  -386.813222 (dE=-0.122E-01)
 bond charge predicted
       N       E                     dE             d eps       ncg     rms          rms(c)
DAV:   1    -0.386805620137E+03   -0.16714E-02   -0.28877E+00  7840   0.227E+00    0.271E-01
RMM:   2    -0.386810889958E+03   -0.52698E-02   -0.52299E-02  7954   0.340E-01    0.330E-01
RMM:   3    -0.386811176939E+03   -0.28698E-03   -0.35930E-03  7968   0.800E-02    0.412E-01
RMM:   4    -0.386812886503E+03   -0.17096E-02   -0.12173E-03  7973   0.416E-02    0.635E-01
RMM:   5    -0.386810289981E+03    0.25965E-02   -0.86273E-04  7870   0.358E-02    0.264E-01
RMM:   6    -0.386810113242E+03    0.17674E-03   -0.54886E-04  7860   0.296E-02    0.162E-01
RMM:   7    -0.386810138775E+03   -0.25534E-04   -0.50060E-04  7859   0.287E-02    0.141E-01
RMM:   8    -0.386810002065E+03    0.13671E-03   -0.19437E-04  7851   0.181E-02    0.665E-02
RMM:   9    -0.386809983456E+03    0.18609E-04   -0.37617E-05  5469   0.804E-03    0.413E-02
RMM:  10    -0.386809970629E+03    0.12827E-04   -0.18220E-05  4239   0.598E-03    0.205E-02
RMM:  11    -0.386809967316E+03    0.33136E-05   -0.79216E-06  4093   0.421E-03
  53 F= -.38680997E+03 E0= -.38679720E+03  d E =-.890453E-02
 curvature:  -1.25 expect dE=-0.173E-01 dE for cont linesearch -0.150E-02
 ZBRENT: increasing intervall
 opt :   0.9899  next Energy=  -386.809758 (dE=-0.870E-02)
 bond charge predicted
       N       E                     dE             d eps       ncg     rms          rms(c)
DAV:   1    -0.386793863199E+03    0.16107E-01   -0.11572E+01  7840   0.456E+00    0.538E-01
RMM:   2    -0.386815455745E+03   -0.21593E-01   -0.21159E-01  7956   0.683E-01    0.684E-01
RMM:   3    -0.386814884341E+03    0.57140E-03   -0.14109E-02  7979   0.159E-01    0.677E-01
RMM:   4    -0.386825700094E+03   -0.10816E-01   -0.50693E-03  7956   0.855E-02    0.140E+00
RMM:   5    -0.386813180278E+03    0.12520E-01   -0.33115E-03  7882   0.684E-02    0.562E-01
RMM:   6    -0.386812037605E+03    0.11427E-02   -0.23928E-03  7874   0.617E-02    0.312E-01
RMM:   7    -0.386812157006E+03   -0.11940E-03   -0.20547E-03  7884   0.579E-02    0.300E-01
RMM:   8    -0.386811591485E+03    0.56552E-03   -0.80204E-04  7860   0.366E-02    0.155E-01
RMM:   9    -0.386811460074E+03    0.13141E-03   -0.17933E-04  7835   0.171E-02    0.751E-02
RMM:  10    -0.386811417461E+03    0.42614E-04   -0.79034E-05  7696   0.112E-02    0.430E-02
RMM:  11    -0.386811402241E+03    0.15220E-04   -0.32225E-05  4739   0.764E-03    0.267E-02
RMM:  12    -0.386811401178E+03    0.10632E-05   -0.14041E-05  4183   0.546E-03
  54 F= -.38681140E+03 E0= -.38679865E+03  d E =-.103384E-01
 curvature:   0.17 expect dE= 0.239E-02 dE for cont linesearch  0.160E-03
 ZBRENT: bracketing found
 ZBRENT: interpolating
 opt :   0.7129  next Energy=  -386.812958 (dE=-0.119E-01)
 bond charge predicted
[...]
RMM:   4    -0.386845560233E+03    0.10498E-03   -0.35034E-05  5233   0.783E-03    0.297E-02
RMM:   5    -0.386845557433E+03    0.28006E-05   -0.85319E-06  4091   0.409E-03
 102 F= -.38684556E+03 E0= -.38683305E+03  d E =-.562783E-04
 ZBRENT: can't locate minimum, use default step
 trial-energy change:   -0.000056  1 .order   -0.000152   -0.000158   -0.000145
 step:   0.4968(harm=  1.4747)  dis= 0.00116  next Energy=  -386.846441 (dE=-0.940E-03)
 bond charge predicted
       N       E                     dE             d eps       ncg     rms          rms(c)
DAV:   1    -0.386845804132E+03   -0.24390E-03   -0.49216E-02  7888   0.298E-01    0.419E-02
RMM:   2    -0.386845939535E+03   -0.13540E-03   -0.94224E-04  7929   0.448E-02    0.927E-02
RMM:   3    -0.386845929178E+03    0.10357E-04   -0.75412E-05  7319   0.115E-02    0.860E-02
RMM:   4    -0.386845914691E+03    0.14487E-04   -0.25403E-05  4786   0.654E-03    0.749E-02
RMM:   5    -0.386845880602E+03    0.34090E-04   -0.14644E-05  4275   0.566E-03    0.242E-02
RMM:   6    -0.386845881549E+03   -0.94747E-06   -0.11366E-05  4174   0.493E-03
 103 F= -.38684588E+03 E0= -.38683339E+03  d E =-.380395E-03
 curvature:  -0.38 expect dE=-0.384E-03 dE for cont linesearch -0.179E-03
 ZBRENT: increasing intervall
 opt :   1.2421  next Energy=  -386.846215 (dE=-0.714E-03)
 bond charge predicted
       N       E                     dE             d eps       ncg     rms          rms(c)
DAV:   1    -0.386845859194E+03    0.21408E-04   -0.19684E-01  7872   0.596E-01    0.821E-02
RMM:   2    -0.386846334262E+03   -0.47507E-03   -0.37741E-03  7931   0.894E-02    0.155E-01
RMM:   3    -0.386846262634E+03    0.71628E-04   -0.28357E-04  7946   0.223E-02    0.122E-01
RMM:   4    -0.386846512531E+03   -0.24990E-03   -0.12043E-04  7705   0.128E-02    0.223E-01
RMM:   5    -0.386846159297E+03    0.35323E-03   -0.68248E-05  7261   0.105E-02    0.403E-02
RMM:   6    -0.386846178303E+03   -0.19006E-04   -0.48036E-05  6152   0.907E-03    0.499E-02
RMM:   7    -0.386846177092E+03    0.12107E-05   -0.26095E-05  4596   0.708E-03
 104 F= -.38684618E+03 E0= -.38683368E+03  d E =-.675938E-03
 curvature:  -0.71 expect dE=-0.202E-02 dE for cont linesearch -0.147E-04
 trial: gam= 2.12031 g(F)=  0.285E-02 g(S)=  0.000E+00 ort = 0.170E-03 (trialstep = 0.492E-01)
 search vector abs. value=  0.980E-02
 bond charge predicted
       N       E                     dE             d eps       ncg     rms          rms(c)
DAV:   1    -0.386846275106E+03   -0.96803E-04   -0.56510E-03  7888   0.100E-01    0.235E-02
RMM:   2    -0.386846310291E+03   -0.35185E-04   -0.14838E-04  7690   0.165E-02    0.588E-02
RMM:   3    -0.386846310119E+03    0.17156E-06   -0.18112E-05  4376   0.582E-03
 105 F= -.38684631E+03 E0= -.38683383E+03  d E =-.133027E-03
 trial-energy change:   -0.000133  1 .order   -0.000136   -0.000158   -0.000114
 step:   0.1761(harm=  0.1761)  dis= 0.00104  next Energy=  -386.846460 (dE=-0.283E-03)
 bond charge predicted
       N       E                     dE             d eps       ncg     rms          rms(c)
DAV:   1    -0.386846361507E+03   -0.51216E-04   -0.37841E-02  7888   0.256E-01    0.595E-02
RMM:   2    -0.386846885354E+03   -0.52385E-03   -0.98165E-04  7914   0.422E-02    0.258E-01
RMM:   3    -0.386846486238E+03    0.39912E-03   -0.12750E-04  7785   0.140E-02    0.114E-01
RMM:   4    -0.386846425828E+03    0.60410E-04   -0.44285E-05  5840   0.867E-03    0.585E-02
RMM:   5    -0.386846417120E+03    0.87081E-05   -0.34750E-05  4726   0.794E-03
 106 F= -.38684642E+03 E0= -.38683391E+03  d E =-.240028E-03
 curvature:  -0.27 expect dE=-0.327E-03 dE for cont linesearch -0.373E-05
 trial: gam= 0.46193 g(F)=  0.122E-02 g(S)=  0.000E+00 ort = 0.369E-03 (trialstep = 0.746E-01)
 search vector abs. value=  0.365E-02
 bond charge predicted
       N       E                     dE             d eps       ncg     rms          rms(c)
DAV:   1    -0.386846494275E+03   -0.68446E-04   -0.50620E-03  7888   0.969E-02    0.423E-02
RMM:   2    -0.386846706911E+03   -0.21264E-03   -0.31082E-04  7858   0.234E-02    0.163E-01
RMM:   3    -0.386846507463E+03    0.19945E-03   -0.11043E-04  7758   0.135E-02    0.566E-02
RMM:   4    -0.386846492693E+03    0.14770E-04   -0.78231E-06  4293   0.362E-03    0.281E-02
RMM:   5    -0.386846489999E+03    0.26941E-05   -0.40376E-06  4017   0.270E-03
 107 F= -.38684649E+03 E0= -.38683401E+03  d E =-.728787E-04
 ZBRENT: can't locate minimum, use default step
 trial-energy change:   -0.000073  1 .order   -0.000100   -0.000103   -0.000097
 step:   0.2982(harm=  1.2657)  dis= 0.00133  next Energy=  -386.847296 (dE=-0.878E-03)
 bond charge predicted
       N       E                     dE             d eps       ncg     rms          rms(c)
DAV:   1    -0.386846658706E+03   -0.16601E-03   -0.45726E-02  7888   0.280E-01    0.322E-02
RMM:   2    -0.386846755691E+03   -0.96985E-04   -0.86653E-04  7948   0.403E-02    0.536E-02
RMM:   3    -0.386846757704E+03   -0.20123E-05   -0.47721E-05  5552   0.954E-03
 108 F= -.38684676E+03 E0= -.38683424E+03  d E =-.340583E-03
 curvature:  -0.57 expect dE=-0.628E-03 dE for cont linesearch -0.198E-03
 ZBRENT: increasing intervall
 opt :   0.7456  next Energy=  -386.847185 (dE=-0.768E-03)
 bond charge predicted
       N       E                     dE             d eps       ncg     rms          rms(c)
DAV:   1    -0.386846895776E+03   -0.14008E-03   -0.18346E-01  7840   0.562E-01    0.939E-02
RMM:   2    -0.386850641745E+03   -0.37460E-02   -0.41355E-03  7945   0.866E-02    0.698E-01
RMM:   3    -0.386847321930E+03    0.33198E-02   -0.66490E-04  7894   0.318E-02    0.180E-01
RMM:   4    -0.386847165900E+03    0.15603E-03   -0.12878E-04  7856   0.148E-02    0.707E-02
RMM:   5    -0.386847157562E+03    0.83384E-05   -0.46292E-05  5913   0.884E-03
 109 F= -.38684716E+03 E0= -.38683462E+03  d E =-.740442E-03
 curvature:  -1.22 expect dE=-0.128E-02 dE for cont linesearch -0.415E-03
 ZBRENT: increasing intervall
 opt :   1.6403  next Energy=  -386.848140 (dE=-0.172E-02)
 bond charge predicted
       N       E                     dE             d eps       ncg     rms          rms(c)
DAV:   1    -0.386846571767E+03    0.59413E-03   -0.73069E-01  7840   0.112E+00    0.127E-01
RMM:   2    -0.386848233017E+03   -0.16612E-02   -0.13715E-02  7952   0.160E-01    0.265E-01
RMM:   3    -0.386847754117E+03    0.47890E-03   -0.78337E-04  7933   0.377E-02    0.110E-01
RMM:   4    -0.386847798625E+03   -0.44508E-04   -0.16812E-04  7892   0.169E-02    0.137E-01
RMM:   5    -0.386847916669E+03   -0.11804E-03   -0.98224E-05  7436   0.117E-02    0.185E-01
RMM:   6    -0.386847774863E+03    0.14181E-03   -0.13139E-04  7816   0.138E-02    0.119E-01
RMM:   7    -0.386847740691E+03    0.34171E-04   -0.12644E-04  7819   0.141E-02    0.796E-02
RMM:   8    -0.386847695819E+03    0.44873E-04   -0.50917E-05  6531   0.946E-03    0.313E-02
RMM:   9    -0.386847690415E+03    0.54035E-05   -0.65587E-06  4093   0.363E-03
 110 F= -.38684769E+03 E0= -.38683517E+03  d E =-.127329E-02
 curvature:  -2.89 expect dE=-0.239E-02 dE for cont linesearch -0.281E-03
 ZBRENT: increasing intervall
 opt :   3.4297  next Energy=  -386.847830 (dE=-0.141E-02)
 bond charge predicted
       N       E                     dE             d eps       ncg     rms          rms(c)
DAV:   1    -0.386842997765E+03    0.46981E-02   -0.29291E+00  7840   0.224E+00    0.228E-01
RMM:   2    -0.386849232054E+03   -0.62343E-02   -0.55873E-02  7963   0.321E-01    0.405E-01
RMM:   3    -0.386849944464E+03   -0.71241E-03   -0.29335E-03  7963   0.710E-02    0.547E-01
RMM:   4    -0.386848730315E+03    0.12141E-02   -0.10092E-03  7939   0.387E-02    0.387E-01
RMM:   5    -0.386847843273E+03    0.88704E-03   -0.42271E-04  7875   0.264E-02    0.152E-01
RMM:   6    -0.386847845564E+03   -0.22906E-05   -0.36424E-04  7858   0.244E-02    0.138E-01
RMM:   7    -0.386847914505E+03   -0.68942E-04   -0.41645E-04  7862   0.258E-02    0.154E-01
RMM:   8    -0.386847775549E+03    0.13896E-03   -0.15753E-04  7849   0.162E-02    0.698E-02
RMM:   9    -0.386847747560E+03    0.27989E-04   -0.28581E-05  4846   0.720E-03    0.297E-02
RMM:  10    -0.386847742443E+03    0.51167E-05   -0.93997E-06  4145   0.431E-03
 111 F= -.38684774E+03 E0= -.38683518E+03  d E =-.132532E-02
 curvature:  -1.44 expect dE=-0.251E-02 dE for cont linesearch -0.223E-04
 trial: gam= 1.27585 g(F)=  0.175E-02 g(S)=  0.000E+00 ort =-0.238E-03 (trialstep = 0.384E+00)
 search vector abs. value=  0.708E-02
 bond charge predicted
       N       E                     dE             d eps       ncg     rms          rms(c)
DAV:   1    -0.386847668762E+03    0.78798E-04   -0.25313E-01  7840   0.622E-01    0.729E-02
RMM:   2    -0.386848191713E+03   -0.52295E-03   -0.50326E-03  7937   0.862E-02    0.102E-01
RMM:   3    -0.386848230809E+03   -0.39096E-04   -0.21712E-04  7871   0.190E-02    0.139E-01
RMM:   4    -0.386848242030E+03   -0.11221E-04   -0.84596E-05  7249   0.111E-02    0.149E-01
RMM:   5    -0.386848105188E+03    0.13684E-03   -0.53409E-05  6440   0.937E-03    0.578E-02
RMM:   6    -0.386848114397E+03   -0.92088E-05   -0.42520E-05  5731   0.862E-03
 112 F= -.38684811E+03 E0= -.38683552E+03  d E =-.371953E-03
 trial-energy change:   -0.000372  1 .order   -0.000436   -0.000554   -0.000317
 step:   0.8995(harm=  0.8995)  dis= 0.00538  next Energy=  -386.848391 (dE=-0.649E-03)
 bond charge predicted
       N       E                     dE             d eps       ncg     rms          rms(c)
DAV:   1    -0.386847356889E+03    0.74830E-03   -0.45255E-01  7840   0.829E-01    0.105E-01
RMM:   2    -0.386848481526E+03   -0.11246E-02   -0.89373E-03  7938   0.114E-01    0.222E-01
RMM:   3    -0.386848376601E+03    0.10492E-03   -0.45287E-04  7903   0.275E-02    0.209E-01
RMM:   4    -0.386848219146E+03    0.15746E-03   -0.13194E-04  7808   0.139E-02    0.144E-01
RMM:   5    -0.386848120977E+03    0.98169E-04   -0.92568E-05  7648   0.120E-02    0.849E-02
RMM:   6    -0.386848128710E+03   -0.77334E-05   -0.87251E-05  7590   0.117E-02
 113 F= -.38684813E+03 E0= -.38683542E+03  d E =-.386267E-03
 curvature:  -2.21 expect dE=-0.243E-01 dE for cont linesearch -0.201E-04
 trial: gam= 6.24959 g(F)=  0.110E-01 g(S)=  0.000E+00 ort =-0.254E-03 (trialstep = 0.121E-01)
 search vector abs. value=  0.284E+00
 bond charge predicted
       N       E                     dE             d eps       ncg     rms          rms(c)
DAV:   1    -0.386848181390E+03   -0.60413E-04   -0.97485E-03  7952   0.126E-01    0.576E-02
RMM:   2    -0.386848587504E+03   -0.40611E-03   -0.57861E-04  7863   0.312E-02    0.229E-01
RMM:   3    -0.386848211590E+03    0.37591E-03   -0.19682E-04  7812   0.180E-02    0.755E-02
RMM:   4    -0.386848193995E+03    0.17596E-04   -0.18258E-05  4533   0.537E-03    0.540E-02
RMM:   5    -0.386848176565E+03    0.17430E-04   -0.96082E-06  4151   0.411E-03    0.215E-02
RMM:   6    -0.386848177074E+03   -0.50914E-06   -0.33563E-06  3994   0.261E-03
 114 F= -.38684818E+03 E0= -.38683555E+03  d E =-.483633E-04
 ZBRENT: can't locate minimum, use default step
 trial-energy change:   -0.000048  1 .order   -0.000109   -0.000114   -0.000103
 step:   0.0485(harm=  0.1279)  dis= 0.00176  next Energy=  -386.848731 (dE=-0.602E-03)
 bond charge predicted
       N       E                     dE             d eps       ncg     rms          rms(c)
DAV:   1    -0.386848274302E+03   -0.97737E-04   -0.90187E-02  7872   0.366E-01    0.457E-02
RMM:   2    -0.386848471794E+03   -0.19749E-03   -0.17634E-03  7950   0.504E-02    0.800E-02
RMM:   3    -0.386848433163E+03    0.38631E-04   -0.80859E-05  7032   0.118E-02    0.527E-02
RMM:   4    -0.386848507041E+03   -0.73877E-04   -0.28169E-05  4834   0.683E-03    0.111E-01
RMM:   5    -0.386848430118E+03    0.76922E-04   -0.18970E-05  4493   0.587E-03    0.479E-02
RMM:   6    -0.386848425136E+03    0.49827E-05   -0.15558E-05  4333   0.562E-03
 115 F= -.38684843E+03 E0= -.38683580E+03  d E =-.296425E-03
 curvature:  -1.02 expect dE=-0.956E-02 dE for cont linesearch -0.198E-03
 ZBRENT: increasing intervall
 opt :   0.1214  next Energy=  -386.848886 (dE=-0.757E-03)
 bond charge predicted
       N       E                     dE             d eps       ncg     rms          rms(c)
DAV:   1    -0.386848212295E+03    0.21782E-03   -0.36012E-01  7840   0.733E-01    0.881E-02
RMM:   2    -0.386849033158E+03   -0.82086E-03   -0.69868E-03  7952   0.100E-01    0.179E-01
RMM:   3    -0.386848811550E+03    0.22161E-03   -0.32236E-04  7905   0.235E-02    0.677E-02
RMM:   4    -0.386848845431E+03   -0.33882E-04   -0.55710E-05  5835   0.989E-03    0.947E-02
RMM:   5    -0.386848877821E+03   -0.32390E-04   -0.36410E-05  5270   0.759E-03    0.116E-01
RMM:   6    -0.386848836995E+03    0.40826E-04   -0.63702E-05  6910   0.999E-03    0.802E-02
RMM:   7    -0.386848810300E+03    0.26695E-04   -0.40942E-05  5338   0.865E-03    0.479E-02
RMM:   8    -0.386848796272E+03    0.14028E-04   -0.10541E-05  4115   0.482E-03    0.105E-02
RMM:   9    -0.386848796171E+03    0.10097E-06   -0.24561E-06  4011   0.224E-03
 116 F= -.38684880E+03 E0= -.38683613E+03  d E =-.667461E-03
 curvature:  -2.38 expect dE=-0.153E-01 dE for cont linesearch -0.229E-03
 ZBRENT: increasing intervall
 opt :   0.2670  next Energy=  -386.849241 (dE=-0.111E-02)
 bond charge predicted
       N       E                     dE             d eps       ncg     rms          rms(c)
DAV:   1    -0.386846766662E+03    0.20296E-02   -0.14449E+00  7840   0.147E+00    0.167E-01
RMM:   2    -0.386849587327E+03   -0.28207E-02   -0.27714E-02  7956   0.201E-01    0.215E-01
RMM:   3    -0.386850192448E+03   -0.60512E-03   -0.11999E-03  7928   0.441E-02    0.389E-01
RMM:   4    -0.386849730841E+03    0.46161E-03   -0.46917E-04  7898   0.260E-02    0.308E-01
RMM:   5    -0.386849171503E+03    0.55934E-03   -0.27422E-04  7850   0.209E-02    0.125E-01
RMM:   6    -0.386849194839E+03   -0.23336E-04   -0.21932E-04  7851   0.187E-02    0.108E-01
RMM:   7    -0.386849175102E+03    0.19737E-04   -0.16481E-04  7848   0.164E-02    0.814E-02
RMM:   8    -0.386849133704E+03    0.41399E-04   -0.45490E-05  6107   0.889E-03    0.388E-02
RMM:   9    -0.386849126168E+03    0.75360E-05   -0.10571E-05  4131   0.455E-03
 117 F= -.38684913E+03 E0= -.38683642E+03  d E =-.997457E-03
 curvature:  -4.61 expect dE=-0.134E-01 dE for cont linesearch -0.286E-04
 trial: gam=-0.17988 g(F)=  0.290E-02 g(S)=  0.000E+00 ort = 0.133E-02 (trialstep = 0.631E-01)
 search vector abs. value=  0.116E-01
 bond charge predicted
       N       E                     dE             d eps       ncg     rms          rms(c)
DAV:   1    -0.386849259164E+03   -0.12546E-03   -0.11648E-02  7904   0.140E-01    0.227E-02
RMM:   2    -0.386849338287E+03   -0.79123E-04   -0.27103E-04  7838   0.217E-02    0.916E-02
RMM:   3    -0.386849289082E+03    0.49205E-04   -0.18276E-05  4357   0.582E-03    0.479E-02
RMM:   4    -0.386849276402E+03    0.12680E-04   -0.87076E-06  4124   0.430E-03    0.222E-02
RMM:   5    -0.386849275174E+03    0.12286E-05   -0.47402E-06  4018   0.309E-03
 118 F= -.38684928E+03 E0= -.38683658E+03  d E =-.149006E-03
 trial-energy change:   -0.000149  1 .order   -0.000136   -0.000168   -0.000104
 step:   0.1666(harm=  0.1666)  dis= 0.00217  next Energy=  -386.849348 (dE=-0.221E-03)
 bond charge predicted
       N       E                     dE             d eps       ncg     rms          rms(c)
DAV:   1    -0.386849333408E+03   -0.57006E-04   -0.31242E-02  7888   0.229E-01    0.371E-02
RMM:   2    -0.386849425031E+03   -0.91623E-04   -0.68237E-04  7896   0.344E-02    0.772E-02
RMM:   3    -0.386849416880E+03    0.81507E-05   -0.41161E-05  5230   0.873E-03
 119 F= -.38684942E+03 E0= -.38683672E+03  d E =-.290713E-03
 curvature:  -0.36 expect dE=-0.447E-03 dE for cont linesearch -0.168E-06
 trial: gam= 0.38106 g(F)=  0.123E-02 g(S)=  0.000E+00 ort =-0.732E-04 (trialstep = 0.838E-01)
 search vector abs. value=  0.286E-02
 bond charge predicted
       N       E                     dE             d eps       ncg     rms          rms(c)
DAV:   1    -0.386849504763E+03   -0.79732E-04   -0.52930E-03  7904   0.103E-01    0.502E-02
RMM:   2    -0.386851314755E+03   -0.18100E-02   -0.48209E-04  7856   0.280E-02    0.504E-01
RMM:   3    -0.386849528507E+03    0.17862E-02   -0.24364E-04  7753   0.182E-02    0.105E-01
RMM:   4    -0.386849493868E+03    0.34640E-04   -0.35280E-05  5340   0.816E-03    0.161E-02
RMM:   5    -0.386849499415E+03   -0.55470E-05   -0.98921E-06  4248   0.431E-03
 120 F= -.38684950E+03 E0= -.38683679E+03  d E =-.825344E-04
 ZBRENT: can't locate minimum, use default step
 trial-energy change:   -0.000083  1 .order   -0.000101   -0.000101   -0.000101
 step:   0.3352(harm=  0.3352)  dis= 0.00084  next Energy=  -386.849822 (dE=-0.406E-03)
 bond charge predicted
       N       E                     dE             d eps       ncg     rms          rms(c)
DAV:   1    -0.386849742218E+03   -0.24835E-03   -0.46449E-02  7888   0.293E-01    0.375E-02
RMM:   2    -0.386850054754E+03   -0.31254E-03   -0.79104E-04  7922   0.455E-02    0.185E-01
RMM:   3    -0.386849854442E+03    0.20031E-03   -0.93604E-05  7628   0.125E-02    0.916E-02
RMM:   4    -0.386849807087E+03    0.47355E-04   -0.23242E-05  4574   0.670E-03    0.336E-02
RMM:   5    -0.386849805146E+03    0.19410E-05   -0.10181E-05  4103   0.464E-03
 121 F= -.38684981E+03 E0= -.38683713E+03  d E =-.388265E-03
 curvature:  -0.60 expect dE=-0.431E-03 dE for cont linesearch -0.177E-03
 ZBRENT: increasing intervall
 opt :   0.8381  next Energy=  -386.850122 (dE=-0.706E-03)
 bond charge predicted
       N       E                     dE             d eps       ncg     rms          rms(c)
DAV:   1    -0.386849963181E+03   -0.15609E-03   -0.18588E-01  7840   0.585E-01    0.638E-02
RMM:   2    -0.386850371324E+03   -0.40814E-03   -0.29196E-03  7921   0.891E-02    0.156E-01
RMM:   3    -0.386850257020E+03    0.11430E-03   -0.22644E-04  7957   0.206E-02    0.947E-02
RMM:   4    -0.386850259337E+03   -0.23169E-05   -0.43745E-05  5749   0.846E-03
 122 F= -.38685026E+03 E0= -.38683758E+03  d E =-.842457E-03
 curvature:  -1.08 expect dE=-0.110E-02 dE for cont linesearch -0.443E-04
 trial: gam= 0.00000 g(F)=  0.103E-02 g(S)=  0.000E+00 ort = 0.343E-03 (trialstep = 0.235E+00)
 search vector abs. value=  0.103E-02
 bond charge predicted
       N       E                     dE             d eps       ncg     rms          rms(c)
DAV:   1    -0.386850326489E+03   -0.69470E-04   -0.14185E-02  7888   0.156E-01    0.672E-02
RMM:   2    -0.386851708190E+03   -0.13817E-02   -0.79756E-04  7906   0.365E-02    0.437E-01
RMM:   3    -0.386850537601E+03    0.11706E-02   -0.28793E-04  7844   0.199E-02    0.181E-01
RMM:   4    -0.386850346461E+03    0.19114E-03   -0.73264E-05  7365   0.109E-02    0.506E-02
RMM:   5    -0.386850343120E+03    0.33409E-05   -0.28520E-05  4837   0.708E-03
 123 F= -.38685034E+03 E0= -.38683767E+03  d E =-.837836E-04
 trial-energy change:   -0.000084  1 .order   -0.000129   -0.000241   -0.000017
 step:   0.2527(harm=  0.2527)  dis= 0.00094  next Energy=  -386.850389 (dE=-0.130E-03)
 bond charge predicted
       N       E                     dE             d eps       ncg     rms          rms(c)
DAV:   1    -0.386850337205E+03    0.92564E-05   -0.98946E-05  8080   0.218E-02    0.245E-02
RMM:   2    -0.386850396037E+03   -0.58832E-04   -0.68360E-05  6998   0.108E-02    0.884E-02
RMM:   3    -0.386850338523E+03    0.57515E-04   -0.32094E-05  5042   0.756E-03    0.283E-02
RMM:   4    -0.386850338034E+03    0.48828E-06   -0.46952E-06  4043   0.279E-03
 124 F= -.38685034E+03 E0= -.38683768E+03  d E =-.786974E-04
 curvature:  -0.13 expect dE=-0.172E-03 dE for cont linesearch -0.447E-06
 trial: gam= 1.38475 g(F)=  0.136E-02 g(S)=  0.000E+00 ort =-0.603E-04 (trialstep = 0.773E-01)
 search vector abs. value=  0.316E-02
 reached required accuracy - stopping structural energy minimisation
