<?xml version="1.0" encoding="ISO-8859-1"?>
<modeling>
 <generator>
  <i name="program" type="string">vasp </i>
  <i name="version" type="string">5.4.4.18Apr17-6-g9f103f2a35  </i>
  <i name="subversion" type="string">(build May 23 2022 10:35:18) complex            parallel </i>
  <i name="platform" type="string">IFC18_impi </i>
  <i name="date" type="string">2023 06 19 </i>
  <i name="time" type="string">23:27:39 </i>
 </generator>
 <incar>
  <i type="string" name="SYSTEM"> Pt</i>
  <i type="int" name="ISTART">     0</i>
  <i type="string" name="PREC">med   normal | accurate</i>
  <i type="string" name="ALGO">  Fast    Normal, Fast, Very_Fast</i>
  <i type="int" name="ICHARG">     2</i>
  <i type="int" name="INIWAV">     1</i>
  <i type="int" name="NELM">   100</i>
  <i type="int" name="IBRION">     2</i>
  <i name="EDIFF">      0.00001000</i>
  <i type="int" name="NSW">   200</i>
  <i type="int" name="ISIF">     1</i>
  <i type="int" name="ISYM">     0</i>
  <i name="ENCUT">    400.00000000</i>
  <i type="string" name="LREAL">  Auto     real-space projection (.FALSE</i>
  <i type="int" name="ISMEAR">     1</i>
  <i name="SIGMA">      0.10000000</i>
  <i type="int" name="NWRITE">     2</i>
  <i type="logical" name="LWAVE"> F  </i>
  <i type="logical" name="LCHARG"> F  </i>
  <i type="logical" name="LAECHG"> F  </i>
  <v type="int" name="KPOINT_BSE">    -1     0     0     0</v>
  <i type="int" name="NELM">   100</i>
 </incar>
 <structure name="primitive_cell" >
  <crystal>
   <varray name="basis" >
    <v>      11.21440000       0.00000000       0.00000000 </v>
    <v>       5.60720000       9.71195529       0.00000000 </v>
    <v>       0.00000000       0.00000000      31.44560000 </v>
   </varray>
   <i name="volume">   3424.85826052 </i>
   <varray name="rec_basis" >
    <v>       0.08917107      -0.05148294       0.00000000 </v>
    <v>       0.00000000       0.10296588       0.00000000 </v>
    <v>       0.00000000       0.00000000       0.03180095 </v>
   </varray>
  </crystal>
  <varray name="positions" >
   <v>       0.08333000       0.33333000       0.39081000 </v>
   <v>       0.16667000       0.16667000       0.46360000 </v>
   <v>      -0.08333000       0.41667000       0.46360000 </v>
   <v>       0.16667000       0.41667000       0.46360000 </v>
   <v>       0.33333000       0.08333000       0.39081000 </v>
   <v>      -0.16667000      -0.41667000       0.39081000 </v>
   <v>       0.33333000       0.33333000       0.39081000 </v>
   <v>      -0.16667000       0.33333000       0.39081000 </v>
   <v>       0.08333000       0.08333000       0.39081000 </v>
   <v>       0.08333000      -0.41667000       0.39081000 </v>
   <v>      -0.08333000       0.16667000       0.46360000 </v>
   <v>       0.41667000       0.16667000       0.46360000 </v>
   <v>      -0.08333000      -0.33333000       0.46360000 </v>
   <v>       0.16667000      -0.08333000       0.46360000 </v>
   <v>      -0.33333000       0.41667000       0.46360000 </v>
   <v>       0.41667000      -0.08333000       0.46360000 </v>
   <v>      -0.33333000      -0.33333000       0.46360000 </v>
   <v>       0.00000000       0.25000000      -0.46360000 </v>
   <v>       0.25000000       0.25000000      -0.46360000 </v>
   <v>       0.00000000      -0.50000000      -0.46360000 </v>
   <v>       0.33333000      -0.16667000       0.39081000 </v>
   <v>      -0.41667000      -0.41667000       0.39081000 </v>
   <v>      -0.41667000       0.08333000       0.39081000 </v>
   <v>      -0.16667000       0.08333000       0.39081000 </v>
   <v>       0.33333000      -0.41667000       0.39081000 </v>
   <v>      -0.16667000      -0.16667000       0.39081000 </v>
   <v>       0.16667000      -0.33333000       0.46360000 </v>
   <v>       0.41667000       0.41667000       0.46360000 </v>
   <v>       0.25000000       0.00000000      -0.46360000 </v>
   <v>      -0.25000000      -0.50000000      -0.46360000 </v>
   <v>       0.25000000      -0.50000000      -0.46360000 </v>
   <v>       0.08333000      -0.16667000       0.39081000 </v>
   <v>      -0.41667000       0.33333000       0.39081000 </v>
   <v>      -0.41667000      -0.16667000       0.39081000 </v>
   <v>      -0.33333000       0.16667000       0.46360000 </v>
   <v>      -0.08333000      -0.08333000       0.46360000 </v>
   <v>      -0.25000000       0.25000000      -0.46360000 </v>
   <v>       0.00000000       0.00000000      -0.46360000 </v>
   <v>      -0.50000000       0.00000000      -0.46360000 </v>
   <v>      -0.25000000      -0.25000000      -0.46360000 </v>
   <v>      -0.33333000      -0.08333000       0.46360000 </v>
   <v>      -0.50000000       0.25000000      -0.46360000 </v>
   <v>       0.00000000      -0.25000000      -0.46360000 </v>
   <v>       0.08333000       0.33333000      -0.39081000 </v>
   <v>       0.41667000      -0.33333000       0.46360000 </v>
   <v>       0.33333000       0.08333000      -0.39081000 </v>
   <v>      -0.16667000      -0.41667000      -0.39081000 </v>
   <v>       0.08333000       0.08333000      -0.39081000 </v>
   <v>       0.33333000       0.33333000      -0.39081000 </v>
   <v>       0.08333000      -0.41667000      -0.39081000 </v>
   <v>      -0.16667000       0.33333000      -0.39081000 </v>
   <v>      -0.50000000      -0.50000000      -0.46360000 </v>
   <v>       0.25000000      -0.25000000      -0.46360000 </v>
   <v>      -0.50000000      -0.25000000      -0.46360000 </v>
   <v>      -0.25000000       0.00000000      -0.46360000 </v>
   <v>       0.33333000      -0.16667000      -0.39081000 </v>
   <v>      -0.41667000      -0.41667000      -0.39081000 </v>
   <v>      -0.41667000       0.08333000      -0.39081000 </v>
   <v>      -0.16667000       0.08333000      -0.39081000 </v>
   <v>       0.33333000      -0.41667000      -0.39081000 </v>
   <v>      -0.16667000      -0.16667000      -0.39081000 </v>
   <v>       0.08333000      -0.16667000      -0.39081000 </v>
   <v>      -0.41667000       0.33333000      -0.39081000 </v>
   <v>      -0.41667000      -0.16667000      -0.39081000 </v>
   <v>      -0.49352000       0.41571000      -0.31369000 </v>
   <v>      -0.49352000       0.41571000      -0.27711000 </v>
  </varray>
 </structure>
 <varray name="primitive_index" >
  <v type="int" >        1 </v>
  <v type="int" >        7 </v>
  <v type="int" >       38 </v>
  <v type="int" >        8 </v>
  <v type="int" >        4 </v>
  <v type="int" >       52 </v>
  <v type="int" >        3 </v>
  <v type="int" >       35 </v>
  <v type="int" >        2 </v>
  <v type="int" >       18 </v>
  <v type="int" >       37 </v>
  <v type="int" >        5 </v>
  <v type="int" >       53 </v>
  <v type="int" >       24 </v>
  <v type="int" >       40 </v>
  <v type="int" >       22 </v>
  <v type="int" >       55 </v>
  <v type="int" >       44 </v>
  <v type="int" >       10 </v>
  <v type="int" >       59 </v>
  <v type="int" >       19 </v>
  <v type="int" >       50 </v>
  <v type="int" >       34 </v>
  <v type="int" >       36 </v>
  <v type="int" >       20 </v>
  <v type="int" >       51 </v>
  <v type="int" >       23 </v>
  <v type="int" >        6 </v>
  <v type="int" >        9 </v>
  <v type="int" >       57 </v>
  <v type="int" >       25 </v>
  <v type="int" >       17 </v>
  <v type="int" >       33 </v>
  <v type="int" >       49 </v>
  <v type="int" >       39 </v>
  <v type="int" >       54 </v>
  <v type="int" >       42 </v>
  <v type="int" >       43 </v>
  <v type="int" >       11 </v>
  <v type="int" >       58 </v>
  <v type="int" >       56 </v>
  <v type="int" >       12 </v>
  <v type="int" >       60 </v>
  <v type="int" >       13 </v>
  <v type="int" >       21 </v>
  <v type="int" >       16 </v>
  <v type="int" >       64 </v>
  <v type="int" >       14 </v>
  <v type="int" >       15 </v>
  <v type="int" >       30 </v>
  <v type="int" >       47 </v>
  <v type="int" >       27 </v>
  <v type="int" >       26 </v>
  <v type="int" >       28 </v>
  <v type="int" >       41 </v>
  <v type="int" >       31 </v>
  <v type="int" >       62 </v>
  <v type="int" >       46 </v>
  <v type="int" >       48 </v>
  <v type="int" >       32 </v>
  <v type="int" >       63 </v>
  <v type="int" >       29 </v>
  <v type="int" >       45 </v>
  <v type="int" >       61 </v>
  <v type="int" >       66 </v>
  <v type="int" >       65 </v>
 </varray>
 <kpoints>
  <generation param="Gamma">
   <v type="int" name="divisions">       4        4        1 </v>
   <v name="usershift">      0.00000000       0.00000000       0.00000000 </v>
   <v name="genvec1">      0.25000000      -0.00000000       0.00000000 </v>
   <v name="genvec2">      0.00000000       0.25000000       0.00000000 </v>
   <v name="genvec3">      0.00000000       0.00000000       1.00000000 </v>
   <v name="shift">      0.00000000       0.00000000       0.00000000 </v>
  </generation>
  <varray name="kpointlist" >
   <v>       0.00000000       0.00000000       0.00000000 </v>
   <v>       0.25000000       0.00000000       0.00000000 </v>
   <v>       0.50000000       0.00000000       0.00000000 </v>
   <v>       0.00000000       0.25000000       0.00000000 </v>
   <v>       0.25000000       0.25000000       0.00000000 </v>
   <v>       0.50000000       0.25000000       0.00000000 </v>
   <v>      -0.25000000       0.25000000       0.00000000 </v>
   <v>       0.00000000       0.50000000       0.00000000 </v>
   <v>       0.25000000       0.50000000       0.00000000 </v>
   <v>       0.50000000       0.50000000       0.00000000 </v>
  </varray>
  <varray name="weights" >
   <v>       0.06250000 </v>
   <v>       0.12500000 </v>
   <v>       0.06250000 </v>
   <v>       0.12500000 </v>
   <v>       0.12500000 </v>
   <v>       0.12500000 </v>
   <v>       0.12500000 </v>
   <v>       0.06250000 </v>
   <v>       0.12500000 </v>
   <v>       0.06250000 </v>
  </varray>
 </kpoints>
 <parameters>
  <separator name="general" >
   <i type="string" name="SYSTEM">Pt</i>
   <i type="logical" name="LCOMPAT"> F  </i>
  </separator>
  <separator name="electronic" >
   <i type="string" name="PREC">med</i>
   <i name="ENMAX">    400.00000000</i>
   <i name="ENAUG">    644.87300000</i>
   <i name="EDIFF">      0.00001000</i>
   <i type="int" name="IALGO">    68</i>
   <i type="int" name="IWAVPR">    11</i>
   <i type="int" name="NBANDS">   392</i>
   <i name="NELECT">    650.00000000</i>
   <i type="int" name="TURBO">     0</i>
   <i type="int" name="IRESTART">     0</i>
   <i type="int" name="NREBOOT">     0</i>
   <i type="int" name="NMIN">     0</i>
   <i name="EREF">      0.00000000</i>
   <separator name="electronic smearing" >
    <i type="int" name="ISMEAR">     1</i>
    <i name="SIGMA">      0.10000000</i>
    <i name="KSPACING">      0.50000000</i>
    <i type="logical" name="KGAMMA"> T  </i>
   </separator>
   <separator name="electronic projectors" >
    <i type="logical" name="LREAL"> T  </i>
    <v name="ROPT">     -0.00200000     -0.00200000     -0.00200000</v>
    <i type="int" name="LMAXPAW">  -100</i>
    <i type="int" name="LMAXMIX">     2</i>
    <i type="logical" name="NLSPLINE"> F  </i>
   </separator>
   <separator name="electronic startup" >
    <i type="int" name="ISTART">     0</i>
    <i type="int" name="ICHARG">     2</i>
    <i type="int" name="INIWAV">     1</i>
   </separator>
   <separator name="electronic spin" >
    <i type="int" name="ISPIN">     1</i>
    <i type="logical" name="LNONCOLLINEAR"> F  </i>
    <v name="MAGMOM">      1.00000000      1.00000000      1.00000000      1.00000000      1.00000000      1.00000000      1.00000000      1.00000000      1.00000000      1.00000000      1.00000000      1.00000000      1.00000000      1.00000000      1.00000000      1.00000000      1.00000000      1.00000000      1.00000000      1.00000000
      1.00000000      1.00000000      1.00000000      1.00000000      1.00000000      1.00000000      1.00000000      1.00000000      1.00000000      1.00000000      1.00000000      1.00000000      1.00000000      1.00000000      1.00000000      1.00000000      1.00000000      1.00000000      1.00000000      1.00000000
      1.00000000      1.00000000      1.00000000      1.00000000      1.00000000      1.00000000      1.00000000      1.00000000      1.00000000      1.00000000      1.00000000      1.00000000      1.00000000      1.00000000      1.00000000      1.00000000      1.00000000      1.00000000      1.00000000      1.00000000
      1.00000000      1.00000000      1.00000000      1.00000000      1.00000000      1.00000000</v>
    <i name="NUPDOWN">     -1.00000000</i>
    <i type="logical" name="LSORBIT"> F  </i>
    <v name="SAXIS">      0.00000000      0.00000000      1.00000000</v>
    <i type="logical" name="LSPIRAL"> F  </i>
    <v name="QSPIRAL">      0.00000000      0.00000000      0.00000000</v>
    <i type="logical" name="LZEROZ"> F  </i>
   </separator>
   <separator name="electronic exchange-correlation" >
    <i type="logical" name="LASPH"> F  </i>
    <i type="logical" name="LMETAGGA"> F  </i>
   </separator>
   <separator name="electronic convergence" >
    <i type="int" name="NELM">   100</i>
    <i type="int" name="NELMDL">    -5</i>
    <i type="int" name="NELMIN">     2</i>
    <i name="ENINI">    400.00000000</i>
    <separator name="electronic convergence detail" >
     <i type="logical" name="LDIAG"> T  </i>
     <i type="logical" name="LSUBROT"> F  </i>
     <i name="WEIMIN">      0.00100000</i>
     <i name="EBREAK">      0.00000001</i>
     <i name="DEPER">      0.30000000</i>
     <i type="int" name="NRMM">     4</i>
     <i name="TIME">      0.40000000</i>
    </separator>
   </separator>
   <separator name="electronic mixer" >
    <i name="AMIX">      0.40000000</i>
    <i name="BMIX">      1.00000000</i>
    <i name="AMIN">      0.10000000</i>
    <i name="AMIX_MAG">      1.60000000</i>
    <i name="BMIX_MAG">      1.00000000</i>
    <separator name="electronic mixer details" >
     <i type="int" name="IMIX">     4</i>
     <i type="logical" name="MIXFIRST"> F  </i>
     <i type="int" name="MAXMIX">   -45</i>
     <i name="WC">    100.00000000</i>
     <i type="int" name="INIMIX">     1</i>
     <i type="int" name="MIXPRE">     1</i>
     <i type="int" name="MREMOVE">     5</i>
    </separator>
   </separator>
   <separator name="electronic dipolcorrection" >
    <i type="logical" name="LDIPOL"> F  </i>
    <i type="logical" name="LMONO"> F  </i>
    <i type="int" name="IDIPOL">     0</i>
    <i name="EPSILON">      1.00000000</i>
    <v name="DIPOL">   -100.00000000   -100.00000000   -100.00000000</v>
    <i name="EFIELD">      0.00000000</i>
   </separator>
  </separator>
  <separator name="grids" >
   <i type="int" name="NGX">    56</i>
   <i type="int" name="NGY">    56</i>
   <i type="int" name="NGZ">   160</i>
   <i type="int" name="NGXF">    96</i>
   <i type="int" name="NGYF">    96</i>
   <i type="int" name="NGZF">   270</i>
   <i type="logical" name="ADDGRID"> F  </i>
  </separator>
  <separator name="ionic" >
   <i type="int" name="NSW">   200</i>
   <i type="int" name="IBRION">     2</i>
   <i type="int" name="MDALGO">     0</i>
   <i type="int" name="ISIF">     1</i>
   <i name="PSTRESS">      0.00000000</i>
   <i name="EDIFFG">      0.00010000</i>
   <i type="int" name="NFREE">     1</i>
   <i name="POTIM">      0.50000000</i>
   <i name="SMASS">     -3.00000000</i>
   <i name="SCALEE">      1.00000000</i>
  </separator>
  <separator name="ionic md" >
   <i name="TEBEG">      0.00010000</i>
   <i name="TEEND">      0.00010000</i>
   <i type="int" name="NBLOCK">     1</i>
   <i type="int" name="KBLOCK">   200</i>
   <i type="int" name="NPACO">   256</i>
   <i name="APACO">     16.00000000</i>
  </separator>
  <separator name="symmetry" >
   <i type="int" name="ISYM">     0</i>
   <i name="SYMPREC">      0.00001000</i>
  </separator>
  <separator name="dos" >
   <i type="int" name="LORBIT">     0</i>
   <v name="RWIGS">     -1.00000000     -1.00000000     -1.00000000</v>
   <i type="int" name="NEDOS">   301</i>
   <i name="EMIN">     10.00000000</i>
   <i name="EMAX">    -10.00000000</i>
   <i name="EFERMI">      0.00000000</i>
  </separator>
  <separator name="writing" >
   <i type="int" name="NWRITE">     2</i>
   <i type="logical" name="LWAVE"> F  </i>
   <i type="logical" name="LDOWNSAMPLE"> F  </i>
   <i type="logical" name="LCHARG"> F  </i>
   <i type="logical" name="LPARD"> F  </i>
   <i type="logical" name="LVTOT"> F  </i>
   <i type="logical" name="LVHAR"> F  </i>
   <i type="logical" name="LELF"> F  </i>
   <i type="logical" name="LOPTICS"> F  </i>
   <v name="STM">      0.00000000      0.00000000      0.00000000      0.00000000      0.00000000      0.00000000      0.00000000</v>
  </separator>
  <separator name="performance" >
   <i type="int" name="NPAR">     8</i>
   <i type="int" name="NSIM">     4</i>
   <i type="int" name="NBLK">    -1</i>
   <i type="logical" name="LPLANE"> T  </i>
   <i type="logical" name="LSCALAPACK"> T  </i>
   <i type="logical" name="LSCAAWARE"> F  </i>
   <i type="logical" name="LSCALU"> F  </i>
   <i type="logical" name="LASYNC"> F  </i>
   <i type="logical" name="LORBITALREAL"> F  </i>
  </separator>
  <separator name="miscellaneous" >
   <i type="int" name="IDIOT">     3</i>
   <i type="int" name="ISPECIAL">     0</i>
   <i type="logical" name="LMUSIC"> F  </i>
   <v name="POMASS">    195.08000000     16.00000000     12.01100000</v>
   <v name="DARWINR">      0.00000000      0.00000000      0.00000000</v>
   <v name="DARWINV">      1.00000000      1.00000000      1.00000000</v>
   <i type="logical" name="LCORR"> T  </i>
  </separator>
  <i type="logical" name="GGA_COMPAT"> T  </i>
  <i type="logical" name="LBERRY"> F  </i>
  <i type="int" name="ICORELEVEL">     0</i>
  <i type="logical" name="LDAU"> F  </i>
  <i type="int" name="I_CONSTRAINED_M">     0</i>
  <separator name="electronic exchange-correlation" >
   <i type="string" name="GGA">--</i>
   <i type="int" name="VOSKOWN">     0</i>
   <i type="logical" name="LHFCALC"> F  </i>
   <i type="string" name="PRECFOCK"></i>
   <i type="logical" name="LSYMGRAD"> F  </i>
   <i type="logical" name="LHFONE"> F  </i>
   <i type="logical" name="LRHFCALC"> F  </i>
   <i type="logical" name="LTHOMAS"> F  </i>
   <i type="logical" name="LMODELHF"> F  </i>
   <i name="ENCUT4O">     -1.00000000</i>
   <i type="int" name="EXXOEP">     0</i>
   <i type="int" name="FOURORBIT">     0</i>
   <i name="AEXX">      0.00000000</i>
   <i name="HFALPHA">      0.00000000</i>
   <i name="MCALPHA">      0.00000000</i>
   <i name="ALDAX">      1.00000000</i>
   <i name="AGGAX">      1.00000000</i>
   <i name="ALDAC">      1.00000000</i>
   <i name="AGGAC">      1.00000000</i>
   <i type="int" name="NKREDX">     1</i>
   <i type="int" name="NKREDY">     1</i>
   <i type="int" name="NKREDZ">     1</i>
   <i type="logical" name="SHIFTRED"> F  </i>
   <i type="logical" name="ODDONLY"> F  </i>
   <i type="logical" name="EVENONLY"> F  </i>
   <i type="int" name="LMAXFOCK">     0</i>
   <i type="int" name="NMAXFOCKAE">     0</i>
   <i type="logical" name="LFOCKAEDFT"> F  </i>
   <i name="HFSCREEN">      0.00000000</i>
   <i name="HFSCREENC">      0.00000000</i>
   <i type="int" name="NBANDSGWLOW">     0</i>
  </separator>
  <separator name="vdW DFT" >
   <i type="logical" name="LUSE_VDW"> F  </i>
   <i name="Zab_VDW">     -0.84910000</i>
   <i name="PARAM1">      0.12340000</i>
   <i name="PARAM2">      1.00000000</i>
   <i name="PARAM3">      0.00000000</i>
  </separator>
  <separator name="model GW" >
   <i type="int" name="MODEL_GW">     0</i>
   <i name="MODEL_EPS0">     31.13507510</i>
   <i name="MODEL_ALPHA">      1.00000000</i>
  </separator>
  <separator name="linear response parameters" >
   <i type="logical" name="LEPSILON"> F  </i>
   <i type="logical" name="LRPA"> F  </i>
   <i type="logical" name="LNABLA"> F  </i>
   <i type="logical" name="LVEL"> F  </i>
   <i type="int" name="KINTER">     0</i>
   <i name="CSHIFT">      0.10000000</i>
   <i name="OMEGAMAX">     -1.00000000</i>
   <i name="DEG_THRESHOLD">      0.00200000</i>
   <i name="RTIME">     -0.10000000</i>
   <i name="WPLASMAI">      0.00000000</i>
   <v name="DFIELD">      0.00000000      0.00000000      0.00000000</v>
   <v name="WPLASMA">      0.00000000      0.00000000      0.00000000      0.00000000      0.00000000      0.00000000      0.00000000      0.00000000      0.00000000</v>
  </separator>
  <separator name="orbital magnetization" >
   <i type="logical" name="NUCIND"> F  </i>
   <v name="MAGPOS">      0.00000000      0.00000000      0.00000000</v>
   <i type="logical" name="LNICSALL"> T  </i>
   <i type="logical" name="ORBITALMAG"> F  </i>
   <i type="logical" name="LMAGBLOCH"> F  </i>
   <i type="logical" name="LCHIMAG"> F  </i>
   <i type="logical" name="LGAUGE"> T  </i>
   <i type="int" name="MAGATOM">     0</i>
   <v name="MAGDIPOL">      0.00000000      0.00000000      0.00000000</v>
   <v name="AVECCONST">      0.00000000      0.00000000      0.00000000</v>
  </separator>
  <separator name="response functions" >
   <i type="logical" name="LADDER"> F  </i>
   <i type="logical" name="LRPAFORCE"> F  </i>
   <i type="logical" name="LFXC"> F  </i>
   <i type="logical" name="LHARTREE"> T  </i>
   <i type="int" name="IBSE">     0</i>
   <v type="int" name="KPOINT">    -1     0     0     0</v>
   <i type="logical" name="LTCTE"> F  </i>
   <i type="logical" name="LTETE"> F  </i>
   <i type="logical" name="LTRIPLET"> F  </i>
   <i type="logical" name="LFXCEPS"> F  </i>
   <i type="logical" name="LFXHEG"> F  </i>
   <i type="int" name="NATURALO">     2</i>
   <i type="logical" name="L2ORDER"> F  </i>
   <i type="logical" name="LMP2LT"> F  </i>
   <i type="logical" name="LUSEW"> F  </i>
   <i name="ENCUTGW">     -2.00000000</i>
   <i name="ENCUTGWSOFT">     -2.00000000</i>
   <i name="ENCUTLF">     -1.00000000</i>
   <i type="int" name="LMAXMP2">    -1</i>
   <i name="SCISSOR">      0.00000000</i>
   <i type="int" name="NOMEGA">     0</i>
   <i type="int" name="NOMEGAR">     0</i>
   <i type="int" name="NBANDSGW">    -1</i>
   <i type="int" name="NBANDSO">    -1</i>
   <i type="int" name="NBANDSV">    -1</i>
   <i type="int" name="NELM">   100</i>
   <i type="int" name="NELMHF">     1</i>
   <i type="int" name="DIM">     3</i>
   <i type="int" name="ANTIRES">     0</i>
   <i name="OMEGAMAX">    -30.00000000</i>
   <i name="OMEGAMIN">    -30.00000000</i>
   <i name="OMEGATL">   -200.00000000</i>
   <i type="int" name="OMEGAGRID">   140</i>
   <i name="CSHIFT">     -0.10000000</i>
   <i type="logical" name="SELFENERGY"> F  </i>
   <i type="logical" name="LSPECTRAL"> F  </i>
   <i type="logical" name="LSPECTRALGW"> F  </i>
   <i type="logical" name="LSINGLES"> F  </i>
   <i type="logical" name="LFERMIGW"> F  </i>
   <i type="logical" name="ODDONLYGW"> F  </i>
   <i type="logical" name="EVENONLYGW"> F  </i>
   <i type="int" name="NKREDLFX">     1</i>
   <i type="int" name="NKREDLFY">     1</i>
   <i type="int" name="NKREDLFZ">     1</i>
   <i type="int" name="MAXMEM">  2800</i>
   <i type="int" name="TELESCOPE">     0</i>
   <i type="int" name="TAUPAR">     1</i>
   <i type="int" name="OMEGAPAR">    -1</i>
   <i name="LAMBDA">      1.00000000</i>
  </separator>
  <separator name="External order field" >
   <i name="OFIELD_KAPPA">      0.00000000</i>
   <v name="OFIELD_K">      0.00000000      0.00000000      0.00000000</v>
   <i name="OFIELD_Q6_NEAR">      0.00000000</i>
   <i name="OFIELD_Q6_FAR">      0.00000000</i>
   <i name="OFIELD_A">      0.00000000</i>
  </separator>
 </parameters>
 <atominfo>
  <atoms>      66 </atoms>
  <types>       3 </types>
  <array name="atoms" >
   <dimension dim="1">ion</dimension>
   <field type="string">element</field>
   <field type="int">atomtype</field>
   <set>
    <rc><c>Pt</c><c>   1</c></rc>
    <rc><c>Pt</c><c>   1</c></rc>
    <rc><c>Pt</c><c>   1</c></rc>
    <rc><c>Pt</c><c>   1</c></rc>
    <rc><c>Pt</c><c>   1</c></rc>
    <rc><c>Pt</c><c>   1</c></rc>
    <rc><c>Pt</c><c>   1</c></rc>
    <rc><c>Pt</c><c>   1</c></rc>
    <rc><c>Pt</c><c>   1</c></rc>
    <rc><c>Pt</c><c>   1</c></rc>
    <rc><c>Pt</c><c>   1</c></rc>
    <rc><c>Pt</c><c>   1</c></rc>
    <rc><c>Pt</c><c>   1</c></rc>
    <rc><c>Pt</c><c>   1</c></rc>
    <rc><c>Pt</c><c>   1</c></rc>
    <rc><c>Pt</c><c>   1</c></rc>
    <rc><c>Pt</c><c>   1</c></rc>
    <rc><c>Pt</c><c>   1</c></rc>
    <rc><c>Pt</c><c>   1</c></rc>
    <rc><c>Pt</c><c>   1</c></rc>
    <rc><c>Pt</c><c>   1</c></rc>
    <rc><c>Pt</c><c>   1</c></rc>
    <rc><c>Pt</c><c>   1</c></rc>
    <rc><c>Pt</c><c>   1</c></rc>
    <rc><c>Pt</c><c>   1</c></rc>
    <rc><c>Pt</c><c>   1</c></rc>
    <rc><c>Pt</c><c>   1</c></rc>
    <rc><c>Pt</c><c>   1</c></rc>
    <rc><c>Pt</c><c>   1</c></rc>
    <rc><c>Pt</c><c>   1</c></rc>
    <rc><c>Pt</c><c>   1</c></rc>
    <rc><c>Pt</c><c>   1</c></rc>
    <rc><c>Pt</c><c>   1</c></rc>
    <rc><c>Pt</c><c>   1</c></rc>
    <rc><c>Pt</c><c>   1</c></rc>
    <rc><c>Pt</c><c>   1</c></rc>
    <rc><c>Pt</c><c>   1</c></rc>
    <rc><c>Pt</c><c>   1</c></rc>
    <rc><c>Pt</c><c>   1</c></rc>
    <rc><c>Pt</c><c>   1</c></rc>
    <rc><c>Pt</c><c>   1</c></rc>
    <rc><c>Pt</c><c>   1</c></rc>
    <rc><c>Pt</c><c>   1</c></rc>
    <rc><c>Pt</c><c>   1</c></rc>
    <rc><c>Pt</c><c>   1</c></rc>
    <rc><c>Pt</c><c>   1</c></rc>
    <rc><c>Pt</c><c>   1</c></rc>
    <rc><c>Pt</c><c>   1</c></rc>
    <rc><c>Pt</c><c>   1</c></rc>
    <rc><c>Pt</c><c>   1</c></rc>
    <rc><c>Pt</c><c>   1</c></rc>
    <rc><c>Pt</c><c>   1</c></rc>
    <rc><c>Pt</c><c>   1</c></rc>
    <rc><c>Pt</c><c>   1</c></rc>
    <rc><c>Pt</c><c>   1</c></rc>
    <rc><c>Pt</c><c>   1</c></rc>
    <rc><c>Pt</c><c>   1</c></rc>
    <rc><c>Pt</c><c>   1</c></rc>
    <rc><c>Pt</c><c>   1</c></rc>
    <rc><c>Pt</c><c>   1</c></rc>
    <rc><c>Pt</c><c>   1</c></rc>
    <rc><c>Pt</c><c>   1</c></rc>
    <rc><c>Pt</c><c>   1</c></rc>
    <rc><c>Pt</c><c>   1</c></rc>
    <rc><c>O </c><c>   2</c></rc>
    <rc><c>C </c><c>   3</c></rc>
   </set>
  </array>
  <array name="atomtypes" >
   <dimension dim="1">type</dimension>
   <field type="int">atomspertype</field>
   <field type="string">element</field>
   <field>mass</field>
   <field>valence</field>
   <field type="string">pseudopotential</field>
   <set>
    <rc><c>  64</c><c>Pt</c><c>    195.08000000</c><c>     10.00000000</c><c>  PAW_PBE Pt 04Feb2005                  </c></rc>
    <rc><c>   1</c><c>O </c><c>     16.00000000</c><c>      6.00000000</c><c>  PAW_PBE O 08Apr2002                   </c></rc>
    <rc><c>   1</c><c>C </c><c>     12.01100000</c><c>      4.00000000</c><c>  PAW_PBE C 08Apr2002                   </c></rc>
   </set>
  </array>
 </atominfo>
 <structure name="initialpos" >
  <crystal>
   <varray name="basis" >
    <v>      11.21440000       0.00000000       0.00000000 </v>
    <v>       5.60720000       9.71195529       0.00000000 </v>
    <v>       0.00000000       0.00000000      31.44560000 </v>
   </varray>
   <i name="volume">   3424.85826052 </i>
   <varray name="rec_basis" >
    <v>       0.08917107      -0.05148294       0.00000000 </v>
    <v>       0.00000000       0.10296588       0.00000000 </v>
    <v>       0.00000000       0.00000000       0.03180095 </v>
   </varray>
  </crystal>
  <varray name="positions" >
   <v>       0.08333000       0.33333000       0.39081000 </v>
   <v>       0.08333000       0.08333000       0.39081000 </v>
   <v>       0.33333000       0.33333000       0.39081000 </v>
   <v>       0.33333000       0.08333000       0.39081000 </v>
   <v>       0.41667000       0.16667000       0.46360000 </v>
   <v>       0.41667000       0.41667000       0.46360000 </v>
   <v>       0.16667000       0.16667000       0.46360000 </v>
   <v>       0.16667000       0.41667000       0.46360000 </v>
   <v>       0.25000000       0.00000000       0.53640000 </v>
   <v>       0.25000000       0.25000000       0.53640000 </v>
   <v>       0.50000000       0.00000000       0.53640000 </v>
   <v>       0.50000000       0.25000000       0.53640000 </v>
   <v>       0.08333000       0.33333000       0.60919000 </v>
   <v>       0.08333000       0.08333000       0.60919000 </v>
   <v>       0.33333000       0.33333000       0.60919000 </v>
   <v>       0.33333000       0.08333000       0.60919000 </v>
   <v>       0.08333000       0.83333000       0.39081000 </v>
   <v>       0.08333000       0.58333000       0.39081000 </v>
   <v>       0.33333000       0.83333000       0.39081000 </v>
   <v>       0.33333000       0.58333000       0.39081000 </v>
   <v>       0.41667000       0.66667000       0.46360000 </v>
   <v>       0.41667000       0.91667000       0.46360000 </v>
   <v>       0.16667000       0.66667000       0.46360000 </v>
   <v>       0.16667000       0.91667000       0.46360000 </v>
   <v>       0.25000000       0.50000000       0.53640000 </v>
   <v>       0.25000000       0.75000000       0.53640000 </v>
   <v>       0.50000000       0.50000000       0.53640000 </v>
   <v>       0.50000000       0.75000000       0.53640000 </v>
   <v>       0.08333000       0.83333000       0.60919000 </v>
   <v>       0.08333000       0.58333000       0.60919000 </v>
   <v>       0.33333000       0.83333000       0.60919000 </v>
   <v>       0.33333000       0.58333000       0.60919000 </v>
   <v>       0.58333000       0.33333000       0.39081000 </v>
   <v>       0.58333000       0.08333000       0.39081000 </v>
   <v>       0.83333000       0.33333000       0.39081000 </v>
   <v>       0.83333000       0.08333000       0.39081000 </v>
   <v>       0.91667000       0.16667000       0.46360000 </v>
   <v>       0.91667000       0.41667000       0.46360000 </v>
   <v>       0.66667000       0.16667000       0.46360000 </v>
   <v>       0.66667000       0.41667000       0.46360000 </v>
   <v>       0.75000000       0.00000000       0.53640000 </v>
   <v>       0.75000000       0.25000000       0.53640000 </v>
   <v>       0.00000000       0.00000000       0.53640000 </v>
   <v>       0.00000000       0.25000000       0.53640000 </v>
   <v>       0.58333000       0.33333000       0.60919000 </v>
   <v>       0.58333000       0.08333000       0.60919000 </v>
   <v>       0.83333000       0.33333000       0.60919000 </v>
   <v>       0.83333000       0.08333000       0.60919000 </v>
   <v>       0.58333000       0.83333000       0.39081000 </v>
   <v>       0.58333000       0.58333000       0.39081000 </v>
   <v>       0.83333000       0.83333000       0.39081000 </v>
   <v>       0.83333000       0.58333000       0.39081000 </v>
   <v>       0.91667000       0.66667000       0.46360000 </v>
   <v>       0.91667000       0.91667000       0.46360000 </v>
   <v>       0.66667000       0.66667000       0.46360000 </v>
   <v>       0.66667000       0.91667000       0.46360000 </v>
   <v>       0.75000000       0.50000000       0.53640000 </v>
   <v>       0.75000000       0.75000000       0.53640000 </v>
   <v>       0.00000000       0.50000000       0.53640000 </v>
   <v>       0.00000000       0.75000000       0.53640000 </v>
   <v>       0.58333000       0.83333000       0.60919000 </v>
   <v>       0.58333000       0.58333000       0.60919000 </v>
   <v>       0.83333000       0.83333000       0.60919000 </v>
   <v>       0.83333000       0.58333000       0.60919000 </v>
   <v>       0.50648000       0.41571000       0.72289000 </v>
   <v>       0.50648000       0.41571000       0.68631000 </v>
  </varray>
  <varray name="selective"  type="logical" >
   <v type="logical" >  F  F  F </v>
   <v type="logical" >  F  F  F </v>
   <v type="logical" >  F  F  F </v>
   <v type="logical" >  F  F  F </v>
   <v type="logical" >  F  F  F </v>
   <v type="logical" >  F  F  F </v>
   <v type="logical" >  F  F  F </v>
   <v type="logical" >  F  F  F </v>
   <v type="logical" >  T  T  T </v>
   <v type="logical" >  T  T  T </v>
   <v type="logical" >  T  T  T </v>
   <v type="logical" >  T  T  T </v>
   <v type="logical" >  T  T  T </v>
   <v type="logical" >  T  T  T </v>
   <v type="logical" >  T  T  T </v>
   <v type="logical" >  T  T  T </v>
   <v type="logical" >  F  F  F </v>
   <v type="logical" >  F  F  F </v>
   <v type="logical" >  F  F  F </v>
   <v type="logical" >  F  F  F </v>
   <v type="logical" >  F  F  F </v>
   <v type="logical" >  F  F  F </v>
   <v type="logical" >  F  F  F </v>
   <v type="logical" >  F  F  F </v>
   <v type="logical" >  T  T  T </v>
   <v type="logical" >  T  T  T </v>
   <v type="logical" >  T  T  T </v>
   <v type="logical" >  T  T  T </v>
   <v type="logical" >  T  T  T </v>
   <v type="logical" >  T  T  T </v>
   <v type="logical" >  T  T  T </v>
   <v type="logical" >  T  T  T </v>
   <v type="logical" >  F  F  F </v>
   <v type="logical" >  F  F  F </v>
   <v type="logical" >  F  F  F </v>
   <v type="logical" >  F  F  F </v>
   <v type="logical" >  F  F  F </v>
   <v type="logical" >  F  F  F </v>
   <v type="logical" >  F  F  F </v>
   <v type="logical" >  F  F  F </v>
   <v type="logical" >  T  T  T </v>
   <v type="logical" >  T  T  T </v>
   <v type="logical" >  T  T  T </v>
   <v type="logical" >  T  T  T </v>
   <v type="logical" >  T  T  T </v>
   <v type="logical" >  T  T  T </v>
   <v type="logical" >  T  T  T </v>
   <v type="logical" >  T  T  T </v>
   <v type="logical" >  F  F  F </v>
   <v type="logical" >  F  F  F </v>
   <v type="logical" >  F  F  F </v>
   <v type="logical" >  F  F  F </v>
   <v type="logical" >  F  F  F </v>
   <v type="logical" >  F  F  F </v>
   <v type="logical" >  F  F  F </v>
   <v type="logical" >  F  F  F </v>
   <v type="logical" >  T  T  T </v>
   <v type="logical" >  T  T  T </v>
   <v type="logical" >  T  T  T </v>
   <v type="logical" >  T  T  T </v>
   <v type="logical" >  T  T  T </v>
   <v type="logical" >  T  T  T </v>
   <v type="logical" >  T  T  T </v>
   <v type="logical" >  T  T  T </v>
   <v type="logical" >  T  T  T </v>
   <v type="logical" >  T  T  T </v>
  </varray>
  <nose>
   <v>      -3.00000000       0.00000000       0.00010000       0.00010000 </v>
  </nose>
 </structure>
 <calculation>
  <scstep>
   <time name="dav">   12.49   12.54</time>
   <time name="total">   12.53   12.58</time>
   <energy>
    <i name="alphaZ">   1162.91707422 </i>
    <i name="ewald"> 407977.82199644 </i>
    <i name="hartreedc">-456586.67529231 </i>
    <i name="XCdc">    254.94524297 </i>
    <i name="pawpsdc">  45006.97779067 </i>
    <i name="pawaedc"> -43199.21847856 </i>
    <i name="eentropy">     -0.00006331 </i>
    <i name="bandstr">   2384.67461465 </i>
    <i name="atom">  47242.55533565 </i>
    <i name="e_fr_energy">   4243.99822042 </i>
    <i name="e_wo_entrp">   4243.99828373 </i>
    <i name="e_0_energy">   4243.99824152 </i>
   </energy>
  </scstep>
  <scstep>
   <time name="dav">   14.82   14.86</time>
   <time name="total">   14.82   14.87</time>
   <energy>
    <i name="e_fr_energy">    -24.24042579 </i>
    <i name="e_wo_entrp">    -24.23476676 </i>
    <i name="e_0_energy">    -24.23853945 </i>
   </energy>
  </scstep>
  <scstep>
   <time name="dav">   13.81   13.85</time>
   <time name="total">   13.81   13.85</time>
   <energy>
    <i name="e_fr_energy">   -392.12926131 </i>
    <i name="e_wo_entrp">   -392.07058385 </i>
    <i name="e_0_energy">   -392.10970216 </i>
   </energy>
  </scstep>
  <scstep>
   <time name="dav">   15.54   15.58</time>
   <time name="total">   15.54   15.59</time>
   <energy>
    <i name="e_fr_energy">   -410.13552457 </i>
    <i name="e_wo_entrp">   -410.03682948 </i>
    <i name="e_0_energy">   -410.10262621 </i>
   </energy>
  </scstep>
  <scstep>
   <time name="dav">   14.89   14.93</time>
   <time name="total">   15.25   15.29</time>
   <energy>
    <i name="e_fr_energy">   -410.70451665 </i>
    <i name="e_wo_entrp">   -410.60518218 </i>
    <i name="e_0_energy">   -410.67140516 </i>
   </energy>
  </scstep>
  <scstep>
   <time name="diag">    2.02    2.03</time>
   <time name="diis">    5.65    5.67</time>
   <time name="orth">    0.53    0.53</time>
   <time name="total">    8.59    8.62</time>
   <energy>
    <i name="e_fr_energy">   -397.55879062 </i>
    <i name="e_wo_entrp">   -397.52476058 </i>
    <i name="e_0_energy">   -397.54744727 </i>
   </energy>
  </scstep>
  <scstep>
   <time name="diag">    2.04    2.05</time>
   <time name="diis">    5.60    5.62</time>
   <time name="orth">    0.53    0.53</time>
   <time name="total">    8.56    8.59</time>
   <energy>
    <i name="e_fr_energy">   -483.79398329 </i>
    <i name="e_wo_entrp">   -483.79147197 </i>
    <i name="e_0_energy">   -483.79314618 </i>
   </energy>
  </scstep>
  <scstep>
   <time name="diag">    2.05    2.05</time>
   <time name="diis">    5.64    5.65</time>
   <time name="orth">    0.53    0.53</time>
   <time name="total">    8.60    8.62</time>
   <energy>
    <i name="e_fr_energy">   -392.86465555 </i>
    <i name="e_wo_entrp">   -392.83544824 </i>
    <i name="e_0_energy">   -392.85491978 </i>
   </energy>
  </scstep>
  <scstep>
   <time name="diag">    2.04    2.04</time>
   <time name="diis">    5.58    5.59</time>
   <time name="orth">    0.53    0.53</time>
   <time name="total">    8.53    8.56</time>
   <energy>
    <i name="e_fr_energy">   -423.93015498 </i>
    <i name="e_wo_entrp">   -423.89110659 </i>
    <i name="e_0_energy">   -423.91713885 </i>
   </energy>
  </scstep>
  <scstep>
   <time name="diag">    2.04    2.05</time>
   <time name="diis">    5.56    5.58</time>
   <time name="orth">    0.53    0.53</time>
   <time name="total">    8.52    8.55</time>
   <energy>
    <i name="e_fr_energy">   -405.97577207 </i>
    <i name="e_wo_entrp">   -405.96179626 </i>
    <i name="e_0_energy">   -405.97111346 </i>
   </energy>
  </scstep>
  <scstep>
   <time name="diag">    2.05    2.06</time>
   <time name="diis">    5.60    5.62</time>
   <time name="orth">    0.53    0.53</time>
   <time name="total">    8.57    8.60</time>
   <energy>
    <i name="e_fr_energy">   -391.31843552 </i>
    <i name="e_wo_entrp">   -391.31811048 </i>
    <i name="e_0_energy">   -391.31832717 </i>
   </energy>
  </scstep>
  <scstep>
   <time name="diag">    2.05    2.05</time>
   <time name="diis">    5.62    5.64</time>
   <time name="orth">    0.53    0.53</time>
   <time name="total">    8.58    8.61</time>
   <energy>
    <i name="e_fr_energy">   -388.80489350 </i>
    <i name="e_wo_entrp">   -388.78103700 </i>
    <i name="e_0_energy">   -388.79694133 </i>
   </energy>
  </scstep>
  <scstep>
   <time name="diag">    2.04    2.05</time>
   <time name="diis">    5.62    5.63</time>
   <time name="orth">    0.53    0.53</time>
   <time name="total">    8.57    8.60</time>
   <energy>
    <i name="e_fr_energy">   -386.71223176 </i>
    <i name="e_wo_entrp">   -386.67891275 </i>
    <i name="e_0_energy">   -386.70112543 </i>
   </energy>
  </scstep>
  <scstep>
   <time name="diag">    2.04    2.04</time>
   <time name="diis">    5.61    5.62</time>
   <time name="orth">    0.53    0.53</time>
   <time name="total">    8.56    8.58</time>
   <energy>
    <i name="e_fr_energy">   -385.92495353 </i>
    <i name="e_wo_entrp">   -385.87598001 </i>
    <i name="e_0_energy">   -385.90862902 </i>
   </energy>
  </scstep>
  <scstep>
   <time name="diag">    2.04    2.05</time>
   <time name="diis">    5.63    5.64</time>
   <time name="orth">    0.53    0.53</time>
   <time name="total">    8.60    8.62</time>
   <energy>
    <i name="e_fr_energy">   -385.50856631 </i>
    <i name="e_wo_entrp">   -385.46701475 </i>
    <i name="e_0_energy">   -385.49471579 </i>
   </energy>
  </scstep>
  <scstep>
   <time name="diag">    2.03    2.04</time>
   <time name="diis">    5.65    5.66</time>
   <time name="orth">    0.53    0.53</time>
   <time name="total">    8.60    8.62</time>
   <energy>
    <i name="e_fr_energy">   -385.42022456 </i>
    <i name="e_wo_entrp">   -385.37375962 </i>
    <i name="e_0_energy">   -385.40473625 </i>
   </energy>
  </scstep>
  <scstep>
   <time name="diag">    2.04    2.05</time>
   <time name="diis">    5.66    5.68</time>
   <time name="orth">    0.53    0.53</time>
   <time name="total">    8.62    8.65</time>
   <energy>
    <i name="e_fr_energy">   -385.39290359 </i>
    <i name="e_wo_entrp">   -385.35189667 </i>
    <i name="e_0_energy">   -385.37923462 </i>
   </energy>
  </scstep>
  <scstep>
   <time name="diag">    2.05    2.05</time>
   <time name="diis">    5.66    5.67</time>
   <time name="orth">    0.53    0.53</time>
   <time name="total">    8.62    8.65</time>
   <energy>
    <i name="e_fr_energy">   -385.33135987 </i>
    <i name="e_wo_entrp">   -385.28648930 </i>
    <i name="e_0_energy">   -385.31640301 </i>
   </energy>
  </scstep>
  <scstep>
   <time name="diag">    2.04    2.05</time>
   <time name="diis">    5.64    5.65</time>
   <time name="orth">    0.54    0.54</time>
   <time name="total">    8.61    8.64</time>
   <energy>
    <i name="e_fr_energy">   -385.32539116 </i>
    <i name="e_wo_entrp">   -385.27822276 </i>
    <i name="e_0_energy">   -385.30966836 </i>
   </energy>
  </scstep>
  <scstep>
   <time name="diag">    2.05    2.05</time>
   <time name="diis">    5.67    5.68</time>
   <time name="orth">    0.53    0.54</time>
   <time name="total">    8.64    8.66</time>
   <energy>
    <i name="e_fr_energy">   -385.31250094 </i>
    <i name="e_wo_entrp">   -385.26500243 </i>
    <i name="e_0_energy">   -385.29666810 </i>
   </energy>
  </scstep>
  <scstep>
   <time name="diag">    2.04    2.05</time>
   <time name="diis">    5.72    5.73</time>
   <time name="orth">    0.53    0.53</time>
   <time name="total">    8.68    8.70</time>
   <energy>
    <i name="e_fr_energy">   -385.30891951 </i>
    <i name="e_wo_entrp">   -385.26210340 </i>
    <i name="e_0_energy">   -385.29331414 </i>
   </energy>
  </scstep>
  <scstep>
   <time name="diag">    2.04    2.04</time>
   <time name="diis">    5.65    5.66</time>
   <time name="orth">    0.53    0.53</time>
   <time name="total">    8.61    8.63</time>
   <energy>
    <i name="e_fr_energy">   -385.30742449 </i>
    <i name="e_wo_entrp">   -385.26166477 </i>
    <i name="e_0_energy">   -385.29217125 </i>
   </energy>
  </scstep>
  <scstep>
   <time name="diag">    2.04    2.05</time>
   <time name="diis">    5.64    5.66</time>
   <time name="orth">    0.53    0.54</time>
   <time name="total">    8.61    8.63</time>
   <energy>
    <i name="e_fr_energy">   -385.30477576 </i>
    <i name="e_wo_entrp">   -385.26003732 </i>
    <i name="e_0_energy">   -385.28986295 </i>
   </energy>
  </scstep>
  <scstep>
   <time name="diag">    2.05    2.06</time>
   <time name="diis">    5.65    5.66</time>
   <time name="orth">    0.54    0.54</time>
   <time name="total">    8.62    8.65</time>
   <energy>
    <i name="e_fr_energy">   -385.30354360 </i>
    <i name="e_wo_entrp">   -385.25830478 </i>
    <i name="e_0_energy">   -385.28846399 </i>
   </energy>
  </scstep>
  <scstep>
   <time name="diag">    2.06    2.07</time>
   <time name="diis">    5.65    5.67</time>
   <time name="orth">    0.54    0.54</time>
   <time name="total">    8.65    8.67</time>
   <energy>
    <i name="e_fr_energy">   -385.30308886 </i>
    <i name="e_wo_entrp">   -385.25841464 </i>
    <i name="e_0_energy">   -385.28819745 </i>
   </energy>
  </scstep>
  <scstep>
   <time name="diag">    2.06    2.06</time>
   <time name="diis">    5.64    5.66</time>
   <time name="orth">    0.55    0.55</time>
   <time name="total">    8.64    8.67</time>
   <energy>
    <i name="e_fr_energy">   -385.30300825 </i>
    <i name="e_wo_entrp">   -385.25953276 </i>
    <i name="e_0_energy">   -385.28851642 </i>
   </energy>
  </scstep>
  <scstep>
   <time name="diag">    2.08    2.09</time>
   <time name="diis">    5.74    5.75</time>
   <time name="orth">    0.56    0.56</time>
   <time name="total">    8.78    8.80</time>
   <energy>
    <i name="e_fr_energy">   -385.30269399 </i>
    <i name="e_wo_entrp">   -385.25964703 </i>
    <i name="e_0_energy">   -385.28834500 </i>
   </energy>
  </scstep>
  <scstep>
   <time name="diag">    2.09    2.09</time>
   <time name="diis">    5.67    5.69</time>
   <time name="orth">    0.56    0.56</time>
   <time name="total">    8.73    8.75</time>
   <energy>
    <i name="e_fr_energy">   -385.30234058 </i>
    <i name="e_wo_entrp">   -385.25895832 </i>
    <i name="e_0_energy">   -385.28787983 </i>
   </energy>
  </scstep>
  <scstep>
   <time name="diag">    2.11    2.11</time>
   <time name="diis">    5.62    5.64</time>
   <time name="orth">    0.57    0.57</time>
   <time name="total">    8.70    8.73</time>
   <energy>
    <i name="e_fr_energy">   -385.30216625 </i>
    <i name="e_wo_entrp">   -385.25827415 </i>
    <i name="e_0_energy">   -385.28753555 </i>
   </energy>
  </scstep>
  <scstep>
   <time name="diag">    2.12    2.13</time>
   <time name="diis">    3.64    3.65</time>
   <time name="orth">    0.58    0.58</time>
   <time name="total">    6.76    6.78</time>
   <energy>
    <i name="e_fr_energy">   -385.30219591 </i>
    <i name="e_wo_entrp">   -385.25822420 </i>
    <i name="e_0_energy">   -385.28753868 </i>
   </energy>
  </scstep>
  <scstep>
   <time name="diag">    2.14    2.16</time>
   <time name="diis">    3.47    3.50</time>
   <time name="orth">    0.58    0.59</time>
   <time name="total">    6.61    6.68</time>
   <energy>
    <i name="e_fr_energy">   -385.30228555 </i>
    <i name="e_wo_entrp">   -385.25828978 </i>
    <i name="e_0_energy">   -385.28762030 </i>
   </energy>
  </scstep>
  <scstep>
   <time name="diag">    2.15    2.17</time>
   <time name="diis">    3.38    3.42</time>
   <time name="orth">    0.60    0.60</time>
   <time name="total">    6.55    6.61</time>
   <energy>
    <i name="e_fr_energy">   -385.30232533 </i>
    <i name="e_wo_entrp">   -385.25836754 </i>
    <i name="e_0_energy">   -385.28767273 </i>
   </energy>
  </scstep>
  <scstep>
   <time name="diag">    2.18    2.20</time>
   <time name="diis">    3.43    3.46</time>
   <time name="orth">    0.60    0.61</time>
   <time name="total">    6.63    6.70</time>
   <energy>
    <i name="e_fr_energy">   -385.30239544 </i>
    <i name="e_wo_entrp">   -385.25846140 </i>
    <i name="e_0_energy">   -385.28775076 </i>
   </energy>
  </scstep>
  <scstep>
   <time name="diag">    2.19    2.21</time>
   <time name="diis">    3.46    3.50</time>
   <time name="orth">    0.62    0.62</time>
   <time name="total">    6.71    6.77</time>
   <energy>
    <i name="e_fr_energy">   -385.30248549 </i>
    <i name="e_wo_entrp">   -385.25854606 </i>
    <i name="e_0_energy">   -385.28783902 </i>
   </energy>
  </scstep>
  <scstep>
   <time name="diag">    2.22    2.24</time>
   <time name="diis">    3.40    3.43</time>
   <time name="orth">    0.63    0.63</time>
   <time name="total">    6.69    6.76</time>
   <energy>
    <i name="e_fr_energy">   -385.30256027 </i>
    <i name="e_wo_entrp">   -385.25864386 </i>
    <i name="e_0_energy">   -385.28792147 </i>
   </energy>
  </scstep>
  <scstep>
   <time name="diag">    2.24    2.26</time>
   <time name="diis">    3.32    3.35</time>
   <time name="orth">    0.64    0.65</time>
   <time name="total">    6.65    6.71</time>
   <energy>
    <i name="e_fr_energy">   -385.30261974 </i>
    <i name="e_wo_entrp">   -385.25872578 </i>
    <i name="e_0_energy">   -385.28798842 </i>
   </energy>
  </scstep>
  <scstep>
   <time name="diag">    2.26    2.29</time>
   <time name="diis">    3.05    3.08</time>
   <time name="orth">    0.65    0.65</time>
   <time name="total">    6.41    6.47</time>
   <energy>
    <i name="e_fr_energy">   -385.30266882 </i>
    <i name="e_wo_entrp">   -385.25876356 </i>
    <i name="e_0_energy">   -385.28803373 </i>
   </energy>
  </scstep>
  <scstep>
   <time name="diag">    2.29    2.31</time>
   <time name="diis">    3.24    3.27</time>
   <time name="orth">    0.65    0.66</time>
   <time name="total">    6.65    6.71</time>
   <energy>
    <i name="e_fr_energy">   -385.30272678 </i>
    <i name="e_wo_entrp">   -385.25881512 </i>
    <i name="e_0_energy">   -385.28808956 </i>
   </energy>
  </scstep>
  <scstep>
   <time name="diag">    2.30    2.33</time>
   <time name="diis">    2.85    2.88</time>
   <time name="orth">    0.66    0.66</time>
   <time name="total">    6.28    6.35</time>
   <energy>
    <i name="e_fr_energy">   -385.30276461 </i>
    <i name="e_wo_entrp">   -385.25885109 </i>
    <i name="e_0_energy">   -385.28812677 </i>
   </energy>
  </scstep>
  <scstep>
   <time name="diag">    2.32    2.35</time>
   <time name="diis">    2.84    2.87</time>
   <time name="orth">    0.66    0.67</time>
   <time name="total">    6.30    6.37</time>
   <energy>
    <i name="e_fr_energy">   -385.30278996 </i>
    <i name="e_wo_entrp">   -385.25887323 </i>
    <i name="e_0_energy">   -385.28815105 </i>
   </energy>
  </scstep>
  <scstep>
   <time name="diag">    2.34    2.36</time>
   <time name="diis">    2.66    2.69</time>
   <time name="orth">    0.67    0.68</time>
   <time name="total">    6.14    6.20</time>
   <energy>
    <i name="e_fr_energy">   -385.30280686 </i>
    <i name="e_wo_entrp">   -385.25888576 </i>
    <i name="e_0_energy">   -385.28816649 </i>
   </energy>
  </scstep>
  <scstep>
   <time name="diag">    2.34    2.37</time>
   <time name="diis">    2.72    2.74</time>
   <time name="orth">    0.67    0.68</time>
   <time name="total">    6.20    6.27</time>
   <energy>
    <i name="e_fr_energy">   -385.30283366 </i>
    <i name="e_wo_entrp">   -385.25891221 </i>
    <i name="e_0_energy">   -385.28819317 </i>
   </energy>
  </scstep>
  <scstep>
   <time name="diag">    2.34    2.37</time>
   <time name="diis">    2.72    2.75</time>
   <time name="orth">    0.68    0.69</time>
   <time name="total">    6.21    6.28</time>
   <energy>
    <i name="e_fr_energy">   -385.30285219 </i>
    <i name="e_wo_entrp">   -385.25893242 </i>
    <i name="e_0_energy">   -385.28821226 </i>
   </energy>
  </scstep>
  <scstep>
   <time name="diag">    2.35    2.37</time>
   <time name="diis">    2.57    2.60</time>
   <time name="orth">    0.68    0.68</time>
   <time name="total">    6.06    6.12</time>
   <energy>
    <i name="e_fr_energy">   -385.30286330 </i>
    <i name="e_wo_entrp">   -385.25894603 </i>
    <i name="e_0_energy">   -385.28822421 </i>
   </energy>
  </scstep>
  <scstep>
   <time name="diag">    2.35    2.38</time>
   <time name="diis">    2.37    2.40</time>
   <time name="orth">    0.67    0.68</time>
   <time name="total">    5.43    5.48</time>
   <energy>
    <i name="alphaZ">   1162.91707422 </i>
    <i name="ewald"> 407977.82199644 </i>
    <i name="hartreedc">-455979.16585040 </i>
    <i name="XCdc">    233.16451698 </i>
    <i name="pawpsdc">  57058.16167607 </i>
    <i name="pawaedc"> -55423.02236384 </i>
    <i name="eentropy">     -0.04391655 </i>
    <i name="bandstr">  -2657.69133698 </i>
    <i name="atom">  47242.55533565 </i>
    <i name="e_fr_energy">   -385.30286840 </i>
    <i name="e_wo_entrp">   -385.25895186 </i>
    <i name="e_0_energy">   -385.28822955 </i>
   </energy>
  </scstep>
  <structure>
   <crystal>
    <varray name="basis" >
     <v>      11.21440000       0.00000000       0.00000000 </v>
     <v>       5.60720000       9.71195529       0.00000000 </v>
     <v>       0.00000000       0.00000000      31.44560000 </v>
    </varray>
    <i name="volume">   3424.85826052 </i>
    <varray name="rec_basis" >
     <v>       0.08917107      -0.05148294       0.00000000 </v>
     <v>       0.00000000       0.10296588       0.00000000 </v>
     <v>       0.00000000       0.00000000       0.03180095 </v>
    </varray>
   </crystal>
   <varray name="positions" >
    <v>       0.08333000       0.33333000       0.39081000 </v>
    <v>       0.08333000       0.08333000       0.39081000 </v>
    <v>       0.33333000       0.33333000       0.39081000 </v>
    <v>       0.33333000       0.08333000       0.39081000 </v>
    <v>       0.41667000       0.16667000       0.46360000 </v>
    <v>       0.41667000       0.41667000       0.46360000 </v>
    <v>       0.16667000       0.16667000       0.46360000 </v>
    <v>       0.16667000       0.41667000       0.46360000 </v>
    <v>       0.25000000       0.00000000       0.53640000 </v>
    <v>       0.25000000       0.25000000       0.53640000 </v>
    <v>       0.50000000       0.00000000       0.53640000 </v>
    <v>       0.50000000       0.25000000       0.53640000 </v>
    <v>       0.08333000       0.33333000       0.60919000 </v>
    <v>       0.08333000       0.08333000       0.60919000 </v>
    <v>       0.33333000       0.33333000       0.60919000 </v>
    <v>       0.33333000       0.08333000       0.60919000 </v>
    <v>       0.08333000       0.83333000       0.39081000 </v>
    <v>       0.08333000       0.58333000       0.39081000 </v>
    <v>       0.33333000       0.83333000       0.39081000 </v>
    <v>       0.33333000       0.58333000       0.39081000 </v>
    <v>       0.41667000       0.66667000       0.46360000 </v>
    <v>       0.41667000       0.91667000       0.46360000 </v>
    <v>       0.16667000       0.66667000       0.46360000 </v>
    <v>       0.16667000       0.91667000       0.46360000 </v>
    <v>       0.25000000       0.50000000       0.53640000 </v>
    <v>       0.25000000       0.75000000       0.53640000 </v>
    <v>       0.50000000       0.50000000       0.53640000 </v>
    <v>       0.50000000       0.75000000       0.53640000 </v>
    <v>       0.08333000       0.83333000       0.60919000 </v>
    <v>       0.08333000       0.58333000       0.60919000 </v>
    <v>       0.33333000       0.83333000       0.60919000 </v>
    <v>       0.33333000       0.58333000       0.60919000 </v>
    <v>       0.58333000       0.33333000       0.39081000 </v>
    <v>       0.58333000       0.08333000       0.39081000 </v>
    <v>       0.83333000       0.33333000       0.39081000 </v>
    <v>       0.83333000       0.08333000       0.39081000 </v>
    <v>       0.91667000       0.16667000       0.46360000 </v>
    <v>       0.91667000       0.41667000       0.46360000 </v>
    <v>       0.66667000       0.16667000       0.46360000 </v>
    <v>       0.66667000       0.41667000       0.46360000 </v>
    <v>       0.75000000       0.00000000       0.53640000 </v>
    <v>       0.75000000       0.25000000       0.53640000 </v>
    <v>       0.00000000       0.00000000       0.53640000 </v>
    <v>       0.00000000       0.25000000       0.53640000 </v>
    <v>       0.58333000       0.33333000       0.60919000 </v>
    <v>       0.58333000       0.08333000       0.60919000 </v>
    <v>       0.83333000       0.33333000       0.60919000 </v>
    <v>       0.83333000       0.08333000       0.60919000 </v>
    <v>       0.58333000       0.83333000       0.39081000 </v>
    <v>       0.58333000       0.58333000       0.39081000 </v>
    <v>       0.83333000       0.83333000       0.39081000 </v>
    <v>       0.83333000       0.58333000       0.39081000 </v>
    <v>       0.91667000       0.66667000       0.46360000 </v>
    <v>       0.91667000       0.91667000       0.46360000 </v>
    <v>       0.66667000       0.66667000       0.46360000 </v>
    <v>       0.66667000       0.91667000       0.46360000 </v>
    <v>       0.75000000       0.50000000       0.53640000 </v>
    <v>       0.75000000       0.75000000       0.53640000 </v>
    <v>       0.00000000       0.50000000       0.53640000 </v>
    <v>       0.00000000       0.75000000       0.53640000 </v>
    <v>       0.58333000       0.83333000       0.60919000 </v>
    <v>       0.58333000       0.58333000       0.60919000 </v>
    <v>       0.83333000       0.83333000       0.60919000 </v>
    <v>       0.83333000       0.58333000       0.60919000 </v>
    <v>       0.50648000       0.41571000       0.72289000 </v>
    <v>       0.50648000       0.41571000       0.68631000 </v>
   </varray>
  </structure>
  <varray name="forces" >
   <v>      -0.00121458      -0.00991469      -0.06703714 </v>
   <v>      -0.00799699       0.00103868      -0.08511791 </v>
   <v>      -0.00007595       0.00329695      -0.05803766 </v>
   <v>      -0.00001542      -0.00112902      -0.08197287 </v>
   <v>       0.00523861      -0.00604544       0.18069459 </v>
   <v>       0.02061694       0.00673011       0.20725196 </v>
   <v>       0.00844836       0.00666409       0.16899503 </v>
   <v>      -0.00951677       0.01506764       0.16846525 </v>
   <v>       0.00327692       0.00248787      -0.20001840 </v>
   <v>      -0.01130888      -0.01539536      -0.22369589 </v>
   <v>      -0.00659967       0.00624909      -0.20008627 </v>
   <v>       0.03384967       0.01262553      -0.19074181 </v>
   <v>      -0.00038060       0.00285169       0.08048239 </v>
   <v>      -0.00455604       0.00380738       0.07379023 </v>
   <v>      -0.18331864      -0.01335164       0.02824318 </v>
   <v>       0.00562527       0.00184780       0.07680605 </v>
   <v>       0.00872190       0.00755624      -0.05863064 </v>
   <v>      -0.00272746      -0.00234234      -0.06624210 </v>
   <v>       0.00086486       0.00297770      -0.07712486 </v>
   <v>      -0.00347476      -0.00720553      -0.06721814 </v>
   <v>       0.00498860       0.00176861       0.17442328 </v>
   <v>       0.01185678      -0.00859322       0.17131603 </v>
   <v>      -0.00783778      -0.00945484       0.17313471 </v>
   <v>      -0.00198145      -0.01202164       0.18153819 </v>
   <v>      -0.00602367       0.00013143      -0.17404343 </v>
   <v>       0.01370530      -0.00543572      -0.19044829 </v>
   <v>       0.00815429       0.00925718      -0.32309040 </v>
   <v>      -0.01781217       0.00122690      -0.19651582 </v>
   <v>      -0.01443878       0.00730930       0.07734937 </v>
   <v>      -0.01151811       0.00407651       0.05732277 </v>
   <v>       0.00416705       0.01314574       0.07265208 </v>
   <v>      -0.10195277       0.12525738       0.16179693 </v>
   <v>      -0.00700800       0.00463965      -0.07402181 </v>
   <v>      -0.00663522      -0.00494317      -0.06634553 </v>
   <v>       0.00633977      -0.00043649      -0.06070093 </v>
   <v>       0.00892379      -0.00302289      -0.05945622 </v>
   <v>      -0.02395017       0.01373220       0.21308454 </v>
   <v>       0.00313862       0.02123304       0.17223647 </v>
   <v>      -0.01161220       0.01485113       0.17441500 </v>
   <v>      -0.01607043       0.01274825       0.18687448 </v>
   <v>      -0.00003599      -0.02525256      -0.17620175 </v>
   <v>      -0.07952044       0.03701071      -0.09573390 </v>
   <v>       0.01127330       0.00086557      -0.20302684 </v>
   <v>       0.01078722      -0.01044043      -0.21521783 </v>
   <v>      -0.07588790       0.17943649       1.09356094 </v>
   <v>      -0.04072297      -0.11294301       0.04626875 </v>
   <v>       0.12623328       0.00307183       0.06476363 </v>
   <v>       0.04444557      -0.10247754       0.06533928 </v>
   <v>      -0.00862110       0.00566403      -0.05700081 </v>
   <v>       0.00423002       0.00081328      -0.07222072 </v>
   <v>       0.00129222       0.00129924      -0.06910647 </v>
   <v>      -0.00054412      -0.00591814      -0.06151050 </v>
   <v>       0.00414557       0.00303647       0.18075345 </v>
   <v>      -0.02180926      -0.01397709       0.17793255 </v>
   <v>       0.00160974      -0.00577643       0.17192144 </v>
   <v>       0.01129819      -0.00301066       0.17714605 </v>
   <v>       0.00651457       0.00096192      -0.16903726 </v>
   <v>       0.00260806       0.00514067      -0.17789978 </v>
   <v>      -0.00138758      -0.00435238      -0.18534509 </v>
   <v>      -0.00455377       0.01053581      -0.18210017 </v>
   <v>       0.00981011      -0.00405385       0.08114326 </v>
   <v>       0.15290907       0.14784194       0.01659437 </v>
   <v>      -0.00444599       0.00159912       0.07990600 </v>
   <v>      -0.00213461       0.00298229       0.07295488 </v>
   <v>      -0.02593014       0.04679588      -0.40476843 </v>
   <v>       0.18854671      -0.36213924      -0.43944146 </v>
  </varray>
  <varray name="stress" >
   <v>     -23.19309904       0.01093143       0.02648417 </v>
   <v>       0.01093143     -23.14436298      -0.07409359 </v>
   <v>       0.02648417      -0.07409359     -17.20167682 </v>
  </varray>
  <energy>
   <i name="e_fr_energy">   -385.30286840 </i>
   <i name="e_wo_entrp">   -385.28822955 </i>
   <i name="e_0_energy">     -0.04391655 </i>
  </energy>
  <time name="totalsc">  386.21  388.08</time>
 </calculation>
 <calculation>
  <scstep>
   <time name="dav">   14.07   14.21</time>
   <time name="total">   14.54   14.69</time>
   <energy>
    <i name="alphaZ">   1162.91707422 </i>
    <i name="ewald"> 407891.19913188 </i>
    <i name="hartreedc">-455893.61556693 </i>
    <i name="XCdc">    233.03659259 </i>
    <i name="pawpsdc">  57058.17987316 </i>
    <i name="pawaedc"> -55423.04063851 </i>
    <i name="eentropy">     -0.04698185 </i>
    <i name="bandstr">  -2656.56904556 </i>
    <i name="atom">  47242.55533565 </i>
    <i name="e_fr_energy">   -385.38422535 </i>
    <i name="e_wo_entrp">   -385.33724350 </i>
    <i name="e_0_energy">   -385.36856473 </i>
   </energy>
  </scstep>
  <scstep>
   <time name="diag">    2.35    2.37</time>
   <time name="diis">    6.06    6.12</time>
   <time name="orth">    0.67    0.68</time>
   <time name="total">    9.55    9.64</time>
   <energy>
    <i name="e_fr_energy">   -385.46646540 </i>
    <i name="e_wo_entrp">   -385.41675927 </i>
    <i name="e_0_energy">   -385.44989669 </i>
   </energy>
  </scstep>
  <scstep>
   <time name="diag">    2.36    2.38</time>
   <time name="diis">    6.48    6.54</time>
   <time name="orth">    0.67    0.69</time>
   <time name="total">    9.98   10.08</time>
   <energy>
    <i name="e_fr_energy">   -385.42509783 </i>
    <i name="e_wo_entrp">   -385.37920090 </i>
    <i name="e_0_energy">   -385.40979885 </i>
   </energy>
  </scstep>
  <scstep>
   <time name="diag">    2.35    2.37</time>
   <time name="diis">    6.03    6.10</time>
   <time name="orth">    0.66    0.67</time>
   <time name="total">    9.51    9.62</time>
   <energy>
    <i name="e_fr_energy">   -385.44815063 </i>
    <i name="e_wo_entrp">   -385.39660851 </i>
    <i name="e_0_energy">   -385.43096992 </i>
   </energy>
  </scstep>
  <scstep>
   <time name="diag">    2.33    2.35</time>
   <time name="diis">    6.03    6.08</time>
   <time name="orth">    0.66    0.67</time>
   <time name="total">    9.47    9.57</time>
   <energy>
    <i name="e_fr_energy">   -385.42937309 </i>
    <i name="e_wo_entrp">   -385.38317770 </i>
    <i name="e_0_energy">   -385.41397463 </i>
   </energy>
  </scstep>
  <scstep>
   <time name="diag">    2.31    2.33</time>
   <time name="diis">    5.96    6.02</time>
   <time name="orth">    0.66    0.66</time>
   <time name="total">    9.39    9.48</time>
   <energy>
    <i name="e_fr_energy">   -385.42605428 </i>
    <i name="e_wo_entrp">   -385.38027048 </i>
    <i name="e_0_energy">   -385.41079301 </i>
   </energy>
  </scstep>
  <scstep>
   <time name="diag">    2.30    2.32</time>
   <time name="diis">    5.95    6.01</time>
   <time name="orth">    0.64    0.65</time>
   <time name="total">    9.33    9.43</time>
   <energy>
    <i name="e_fr_energy">   -385.42203535 </i>
    <i name="e_wo_entrp">   -385.37346223 </i>
    <i name="e_0_energy">   -385.40584431 </i>
   </energy>
  </scstep>
  <scstep>
   <time name="diag">    2.26    2.29</time>
   <time name="diis">    5.93    5.99</time>
   <time name="orth">    0.63    0.63</time>
   <time name="total">    9.26    9.35</time>
   <energy>
    <i name="e_fr_energy">   -385.42069920 </i>
    <i name="e_wo_entrp">   -385.37488132 </i>
    <i name="e_0_energy">   -385.40542657 </i>
   </energy>
  </scstep>
  <scstep>
   <time name="diag">    2.25    2.27</time>
   <time name="diis">    5.89    5.95</time>
   <time name="orth">    0.62    0.62</time>
   <time name="total">    9.19    9.28</time>
   <energy>
    <i name="e_fr_energy">   -385.42060989 </i>
    <i name="e_wo_entrp">   -385.37410590 </i>
    <i name="e_0_energy">   -385.40510856 </i>
   </energy>
  </scstep>
  <scstep>
   <time name="diag">    2.22    2.24</time>
   <time name="diis">    5.81    5.87</time>
   <time name="orth">    0.61    0.61</time>
   <time name="total">    9.06    9.15</time>
   <energy>
    <i name="e_fr_energy">   -385.42041779 </i>
    <i name="e_wo_entrp">   -385.37364966 </i>
    <i name="e_0_energy">   -385.40482841 </i>
   </energy>
  </scstep>
  <scstep>
   <time name="diag">    2.19    2.21</time>
   <time name="diis">    5.73    5.78</time>
   <time name="orth">    0.59    0.59</time>
   <time name="total">    8.92    9.01</time>
   <energy>
    <i name="e_fr_energy">   -385.42035230 </i>
    <i name="e_wo_entrp">   -385.37386785 </i>
    <i name="e_0_energy">   -385.40485749 </i>
   </energy>
  </scstep>
  <scstep>
   <time name="diag">    2.16    2.18</time>
   <time name="diis">    5.68    5.74</time>
   <time name="orth">    0.58    0.59</time>
   <time name="total">    8.84    8.92</time>
   <energy>
    <i name="e_fr_energy">   -385.42034283 </i>
    <i name="e_wo_entrp">   -385.37370443 </i>
    <i name="e_0_energy">   -385.40479670 </i>
   </energy>
  </scstep>
  <scstep>
   <time name="diag">    2.16    2.17</time>
   <time name="diis">    3.57    3.60</time>
   <time name="orth">    0.58    0.59</time>
   <time name="total">    6.33    6.39</time>
   <energy>
    <i name="alphaZ">   1162.91707422 </i>
    <i name="ewald"> 407891.19913188 </i>
    <i name="hartreedc">-455895.41004826 </i>
    <i name="XCdc">    233.02527780 </i>
    <i name="pawpsdc">  57027.02713252 </i>
    <i name="pawaedc"> -55391.68065712 </i>
    <i name="eentropy">     -0.04658098 </i>
    <i name="bandstr">  -2655.00699922 </i>
    <i name="atom">  47242.55533565 </i>
    <i name="e_fr_energy">   -385.42033350 </i>
    <i name="e_wo_entrp">   -385.37375252 </i>
    <i name="e_0_energy">   -385.40480651 </i>
   </energy>
  </scstep>
  <structure>
   <crystal>
    <varray name="basis" >
     <v>      11.21440000       0.00000000       0.00000000 </v>
     <v>       5.60720000       9.71195529       0.00000000 </v>
     <v>       0.00000000       0.00000000      31.44560000 </v>
    </varray>
    <i name="volume">   3424.85826052 </i>
    <varray name="rec_basis" >
     <v>       0.08917107      -0.05148294       0.00000000 </v>
     <v>       0.00000000       0.10296588       0.00000000 </v>
     <v>       0.00000000       0.00000000       0.03180095 </v>
    </varray>
   </crystal>
   <varray name="positions" >
    <v>       0.08333000       0.33333000       0.39081000 </v>
    <v>       0.08333000       0.08333000       0.39081000 </v>
    <v>       0.33333000       0.33333000       0.39081000 </v>
    <v>       0.33333000       0.08333000       0.39081000 </v>
    <v>       0.41667000       0.16667000       0.46360000 </v>
    <v>       0.41667000       0.41667000       0.46360000 </v>
    <v>       0.16667000       0.16667000       0.46360000 </v>
    <v>       0.16667000       0.41667000       0.46360000 </v>
    <v>       0.25000792       0.00001236       0.53609314 </v>
    <v>       0.24998959       0.24992353       0.53605681 </v>
    <v>       0.49995609       0.00003104       0.53609304 </v>
    <v>       0.50011426       0.25006272       0.53610737 </v>
    <v>       0.08332128       0.33334417       0.60931347 </v>
    <v>       0.08330094       0.08334891       0.60930321 </v>
    <v>       0.33257455       0.33326368       0.60923333 </v>
    <v>       0.33334961       0.08333918       0.60930783 </v>
    <v>       0.08333000       0.83333000       0.39081000 </v>
    <v>       0.08333000       0.58333000       0.39081000 </v>
    <v>       0.33333000       0.83333000       0.39081000 </v>
    <v>       0.33333000       0.58333000       0.39081000 </v>
    <v>       0.41667000       0.66667000       0.46360000 </v>
    <v>       0.41667000       0.91667000       0.46360000 </v>
    <v>       0.16667000       0.66667000       0.46360000 </v>
    <v>       0.16667000       0.91667000       0.46360000 </v>
    <v>       0.24997376       0.50000065       0.53613299 </v>
    <v>       0.25007246       0.74997300       0.53610782 </v>
    <v>       0.50001209       0.50004598       0.53590433 </v>
    <v>       0.49992033       0.75000609       0.53609851 </v>
    <v>       0.08324973       0.83336631       0.60930867 </v>
    <v>       0.08327033       0.58335025       0.60927794 </v>
    <v>       0.33331528       0.83339530       0.60930146 </v>
    <v>       0.33258032       0.58395220       0.60943822 </v>
    <v>       0.58333000       0.33333000       0.39081000 </v>
    <v>       0.58333000       0.08333000       0.39081000 </v>
    <v>       0.83333000       0.33333000       0.39081000 </v>
    <v>       0.83333000       0.08333000       0.39081000 </v>
    <v>       0.91667000       0.16667000       0.46360000 </v>
    <v>       0.91667000       0.41667000       0.46360000 </v>
    <v>       0.66667000       0.16667000       0.46360000 </v>
    <v>       0.66667000       0.41667000       0.46360000 </v>
    <v>       0.75006256      -0.00012544       0.53612968 </v>
    <v>       0.74956599       0.25018385       0.53625313 </v>
    <v>       0.00004635       0.00000430       0.53608852 </v>
    <v>       0.00007234       0.24994814       0.53606982 </v>
    <v>       0.58255788       0.33422132       0.61086770 </v>
    <v>       0.58343533       0.08276897       0.60926098 </v>
    <v>       0.83386541       0.33334526       0.60928936 </v>
    <v>       0.83377572       0.08282096       0.60929024 </v>
    <v>       0.58333000       0.83333000       0.39081000 </v>
    <v>       0.58333000       0.58333000       0.39081000 </v>
    <v>       0.83333000       0.83333000       0.39081000 </v>
    <v>       0.83333000       0.58333000       0.39081000 </v>
    <v>       0.91667000       0.66667000       0.46360000 </v>
    <v>       0.91667000       0.91667000       0.46360000 </v>
    <v>       0.66667000       0.66667000       0.46360000 </v>
    <v>       0.66667000       0.91667000       0.46360000 </v>
    <v>       0.75002564       0.50000478       0.53614067 </v>
    <v>       0.74999845       0.75002554       0.53612707 </v>
    <v>       0.00000484       0.49997838       0.53611565 </v>
    <v>      -0.00004576       0.75005234       0.53612063 </v>
    <v>       0.58338227       0.83330986       0.60931449 </v>
    <v>       0.58362060       0.58406438       0.60921546 </v>
    <v>       0.83330690       0.83333794       0.60931259 </v>
    <v>       0.83331341       0.58334481       0.60930192 </v>
    <v>       0.50625223       0.41594245       0.72226902 </v>
    <v>       0.50819054       0.41391113       0.68563583 </v>
   </varray>
  </structure>
  <varray name="forces" >
   <v>      -0.00269875      -0.01375347      -0.05768021 </v>
   <v>       0.00039004      -0.00136810      -0.08624115 </v>
   <v>       0.00301979       0.00501054      -0.04719348 </v>
   <v>      -0.00669673      -0.00397838      -0.07795355 </v>
   <v>       0.00636361      -0.00923411       0.10846783 </v>
   <v>       0.01214966       0.00131876       0.14967424 </v>
   <v>       0.00506801       0.00401898       0.10985631 </v>
   <v>      -0.00879556       0.02059236       0.10635199 </v>
   <v>       0.00229658      -0.00093650      -0.07749527 </v>
   <v>       0.00098321      -0.00732270      -0.10886439 </v>
   <v>      -0.00443884       0.00490672      -0.09148089 </v>
   <v>       0.08424665       0.04664535       0.04738781 </v>
   <v>      -0.00138262      -0.00223470       0.01431120 </v>
   <v>      -0.00570139       0.00425934       0.00129543 </v>
   <v>      -0.12669389      -0.01868830      -0.04025499 </v>
   <v>       0.00061039      -0.00131881       0.00520405 </v>
   <v>       0.00968144       0.00861618      -0.04850740 </v>
   <v>      -0.00326358      -0.00154481      -0.05643213 </v>
   <v>       0.00014556       0.00619489      -0.06861117 </v>
   <v>      -0.00451945      -0.00789878      -0.06008384 </v>
   <v>       0.00477631       0.01629319       0.08707903 </v>
   <v>       0.01266690      -0.00728117       0.11735491 </v>
   <v>      -0.00962289      -0.01251988       0.11963803 </v>
   <v>      -0.00268502      -0.00654709       0.12474273 </v>
   <v>       0.00859440       0.00204371      -0.05792024 </v>
   <v>       0.00317650      -0.01358290      -0.07288654 </v>
   <v>      -0.00533960      -0.05372586      -0.04232155 </v>
   <v>      -0.00589632       0.00770327      -0.09540610 </v>
   <v>      -0.00331249       0.00161001       0.01308083 </v>
   <v>      -0.02640981       0.01427059      -0.00533414 </v>
   <v>      -0.00073418       0.02018973       0.00161924 </v>
   <v>      -0.05458753       0.09646103       0.06564909 </v>
   <v>      -0.00686287       0.00366832      -0.06970224 </v>
   <v>      -0.00802556      -0.00481956      -0.05865957 </v>
   <v>       0.00427155      -0.00037453      -0.04776707 </v>
   <v>       0.00957060      -0.00179921      -0.04862074 </v>
   <v>      -0.03085406       0.01488436       0.15746436 </v>
   <v>       0.00073109       0.02635609       0.11611874 </v>
   <v>      -0.00612290       0.01809447       0.13472787 </v>
   <v>      -0.00592253       0.00014397       0.13242833 </v>
   <v>       0.00140738      -0.00875748      -0.06718875 </v>
   <v>      -0.11824757       0.06408667       0.13856379 </v>
   <v>       0.00283014       0.00775498      -0.09433378 </v>
   <v>      -0.00811996      -0.00722068      -0.10093242 </v>
   <v>      -0.10199945       0.23263126       1.05483919 </v>
   <v>      -0.01986750      -0.05439869      -0.03053439 </v>
   <v>       0.07341244      -0.00984464      -0.01288419 </v>
   <v>       0.01723055      -0.04014638      -0.01615239 </v>
   <v>      -0.00866369       0.00611540      -0.04704970 </v>
   <v>       0.00489466       0.00183110      -0.06646162 </v>
   <v>       0.00067002      -0.00014345      -0.05963507 </v>
   <v>      -0.00035950      -0.00474614      -0.05166349 </v>
   <v>       0.00394857       0.00300983       0.12920477 </v>
   <v>      -0.02563326      -0.01407336       0.11933283 </v>
   <v>       0.00363656      -0.00884405       0.11591378 </v>
   <v>       0.01436555      -0.00329261       0.11886338 </v>
   <v>       0.00322557      -0.00443030      -0.06800457 </v>
   <v>      -0.00383130       0.00338571      -0.07114808 </v>
   <v>      -0.00226342      -0.00628171      -0.07457003 </v>
   <v>       0.00464898       0.00543538      -0.07333485 </v>
   <v>       0.00610222       0.00205869       0.01760882 </v>
   <v>       0.09240796       0.10056837      -0.05128242 </v>
   <v>      -0.00345642      -0.00577044       0.01393272 </v>
   <v>       0.01779117       0.00870534       0.00932227 </v>
   <v>      -0.02748238       0.04989018      -0.55653931 </v>
   <v>       0.23517695      -0.47187600      -0.56890187 </v>
  </varray>
  <varray name="stress" >
   <v>     -23.58583907       0.01533151      -0.00768102 </v>
   <v>       0.01533151     -23.51063501      -0.00787965 </v>
   <v>      -0.00768102      -0.00787965     -18.00438868 </v>
  </varray>
  <energy>
   <i name="e_fr_energy">   -385.42033350 </i>
   <i name="e_wo_entrp">   -385.40480651 </i>
   <i name="e_0_energy">     -0.04658098 </i>
  </energy>
  <time name="totalsc">  128.14  129.43</time>
 </calculation>
 <calculation>
  <scstep>
   <time name="dav">   12.85   12.96</time>
   <time name="total">   13.26   13.38</time>
   <energy>
    <i name="alphaZ">   1162.91707422 </i>
    <i name="ewald"> 407633.05047918 </i>
    <i name="hartreedc">-455639.29115420 </i>
    <i name="XCdc">    232.79387967 </i>
    <i name="pawpsdc">  57026.96295899 </i>
    <i name="pawaedc"> -55391.61627325 </i>
    <i name="eentropy">     -0.05696196 </i>
    <i name="bandstr">  -2652.63581492 </i>
    <i name="atom">  47242.55533565 </i>
    <i name="e_fr_energy">   -385.32047662 </i>
    <i name="e_wo_entrp">   -385.26351466 </i>
    <i name="e_0_energy">   -385.30148930 </i>
   </energy>
  </scstep>
  <scstep>
   <time name="diag">    2.13    2.15</time>
   <time name="diis">    5.72    5.77</time>
   <time name="orth">    0.57    0.58</time>
   <time name="total">    8.83    8.91</time>
   <energy>
    <i name="e_fr_energy">   -385.81088461 </i>
    <i name="e_wo_entrp">   -385.75039558 </i>
    <i name="e_0_energy">   -385.79072160 </i>
   </energy>
  </scstep>
  <scstep>
   <time name="diag">    2.12    2.14</time>
   <time name="diis">    5.79    5.84</time>
   <time name="orth">    0.57    0.57</time>
   <time name="total">    8.87    8.97</time>
   <energy>
    <i name="e_fr_energy">   -386.46134613 </i>
    <i name="e_wo_entrp">   -386.39361694 </i>
    <i name="e_0_energy">   -386.43876973 </i>
   </energy>
  </scstep>
  <scstep>
   <time name="diag">    2.11    2.14</time>
   <time name="diis">    5.74    5.79</time>
   <time name="orth">    0.56    0.57</time>
   <time name="total">    8.81    8.90</time>
   <energy>
    <i name="e_fr_energy">   -386.01753952 </i>
    <i name="e_wo_entrp">   -385.94609385 </i>
    <i name="e_0_energy">   -385.99372429 </i>
   </energy>
  </scstep>
  <scstep>
   <time name="diag">    2.11    2.13</time>
   <time name="diis">    5.71    5.77</time>
   <time name="orth">    0.56    0.56</time>
   <time name="total">    8.78    8.86</time>
   <energy>
    <i name="e_fr_energy">   -385.75332932 </i>
    <i name="e_wo_entrp">   -385.69585998 </i>
    <i name="e_0_energy">   -385.73417287 </i>
   </energy>
  </scstep>
  <scstep>
   <time name="diag">    2.09    2.11</time>
   <time name="diis">    5.69    5.73</time>
   <time name="orth">    0.55    0.56</time>
   <time name="total">    8.73    8.80</time>
   <energy>
    <i name="e_fr_energy">   -385.71763826 </i>
    <i name="e_wo_entrp">   -385.65686842 </i>
    <i name="e_0_energy">   -385.69738164 </i>
   </energy>
  </scstep>
  <scstep>
   <time name="diag">    2.08    2.10</time>
   <time name="diis">    5.66    5.71</time>
   <time name="orth">    0.55    0.56</time>
   <time name="total">    8.69    8.77</time>
   <energy>
    <i name="e_fr_energy">   -385.69328067 </i>
    <i name="e_wo_entrp">   -385.63363551 </i>
    <i name="e_0_energy">   -385.67339895 </i>
   </energy>
  </scstep>
  <scstep>
   <time name="diag">    2.08    2.10</time>
   <time name="diis">    5.65    5.70</time>
   <time name="orth">    0.55    0.55</time>
   <time name="total">    8.68    8.76</time>
   <energy>
    <i name="e_fr_energy">   -385.68199894 </i>
    <i name="e_wo_entrp">   -385.62618038 </i>
    <i name="e_0_energy">   -385.66339275 </i>
   </energy>
  </scstep>
  <scstep>
   <time name="diag">    2.08    2.10</time>
   <time name="diis">    5.67    5.72</time>
   <time name="orth">    0.55    0.56</time>
   <time name="total">    8.70    8.78</time>
   <energy>
    <i name="e_fr_energy">   -385.67986735 </i>
    <i name="e_wo_entrp">   -385.62229903 </i>
    <i name="e_0_energy">   -385.66067791 </i>
   </energy>
  </scstep>
  <scstep>
   <time name="diag">    2.07    2.09</time>
   <time name="diis">    5.66    5.71</time>
   <time name="orth">    0.55    0.56</time>
   <time name="total">    8.68    8.76</time>
   <energy>
    <i name="e_fr_energy">   -385.67900327 </i>
    <i name="e_wo_entrp">   -385.62203060 </i>
    <i name="e_0_energy">   -385.66001238 </i>
   </energy>
  </scstep>
  <scstep>
   <time name="diag">    2.09    2.11</time>
   <time name="diis">    5.67    5.72</time>
   <time name="orth">    0.55    0.55</time>
   <time name="total">    8.71    8.79</time>
   <energy>
    <i name="e_fr_energy">   -385.67758906 </i>
[...]
       <r>   -21.1786     0.0000     2.0000 </r>
       <r>   -21.0719     0.0000     2.0000 </r>
       <r>   -20.9652     0.0000     2.0000 </r>
       <r>   -20.8586     0.0000     2.0000 </r>
       <r>   -20.7519     0.0000     2.0000 </r>
       <r>   -20.6453     0.0000     2.0000 </r>
       <r>   -20.5386     0.0000     2.0000 </r>
       <r>   -20.4320     0.0000     2.0000 </r>
       <r>   -20.3253     0.0000     2.0000 </r>
       <r>   -20.2186     0.0000     2.0000 </r>
       <r>   -20.1120     0.0000     2.0000 </r>
       <r>   -20.0053     0.0000     2.0000 </r>
       <r>   -19.8987     0.0000     2.0000 </r>
       <r>   -19.7920     0.0000     2.0000 </r>
       <r>   -19.6854     0.0000     2.0000 </r>
       <r>   -19.5787     0.0000     2.0000 </r>
       <r>   -19.4720     0.0000     2.0000 </r>
       <r>   -19.3654     0.0000     2.0000 </r>
       <r>   -19.2587     0.0000     2.0000 </r>
       <r>   -19.1521     0.0000     2.0000 </r>
       <r>   -19.0454     0.0000     2.0000 </r>
       <r>   -18.9388     0.0000     2.0000 </r>
       <r>   -18.8321     0.0000     2.0000 </r>
       <r>   -18.7254     0.0000     2.0000 </r>
       <r>   -18.6188     0.0000     2.0000 </r>
       <r>   -18.5121     0.0000     2.0000 </r>
       <r>   -18.4055     0.0000     2.0000 </r>
       <r>   -18.2988     0.0000     2.0000 </r>
       <r>   -18.1922     0.0000     2.0000 </r>
       <r>   -18.0855     0.0000     2.0000 </r>
       <r>   -17.9788     0.0000     2.0000 </r>
       <r>   -17.8722     0.0000     2.0000 </r>
       <r>   -17.7655     0.0000     2.0000 </r>
       <r>   -17.6589     0.0000     2.0000 </r>
       <r>   -17.5522     0.0000     2.0000 </r>
       <r>   -17.4456     0.0000     2.0000 </r>
       <r>   -17.3389     0.0000     2.0000 </r>
       <r>   -17.2322     0.0000     2.0000 </r>
       <r>   -17.1256     0.0000     2.0000 </r>
       <r>   -17.0189     0.0000     2.0000 </r>
       <r>   -16.9123     0.0000     2.0000 </r>
       <r>   -16.8056     0.0000     2.0000 </r>
       <r>   -16.6990     0.0000     2.0000 </r>
       <r>   -16.5923     0.0000     2.0000 </r>
       <r>   -16.4856     0.0000     2.0000 </r>
       <r>   -16.3790     0.0000     2.0000 </r>
       <r>   -16.2723     0.0000     2.0000 </r>
       <r>   -16.1657     0.0000     2.0000 </r>
       <r>   -16.0590     0.0000     2.0000 </r>
       <r>   -15.9524     0.0000     2.0000 </r>
       <r>   -15.8457     0.0000     2.0000 </r>
       <r>   -15.7390     0.0000     2.0000 </r>
       <r>   -15.6324     0.0000     2.0000 </r>
       <r>   -15.5257     0.0000     2.0000 </r>
       <r>   -15.4191     0.0000     2.0000 </r>
       <r>   -15.3124     0.0000     2.0000 </r>
       <r>   -15.2058     0.0000     2.0000 </r>
       <r>   -15.0991     0.0000     2.0000 </r>
       <r>   -14.9924     0.0000     2.0000 </r>
       <r>   -14.8858     0.0000     2.0000 </r>
       <r>   -14.7791     0.0000     2.0000 </r>
       <r>   -14.6725     0.0000     2.0000 </r>
       <r>   -14.5658     0.0000     2.0000 </r>
       <r>   -14.4591     0.0000     2.0000 </r>
       <r>   -14.3525     0.0000     2.0000 </r>
       <r>   -14.2458     0.0000     2.0000 </r>
       <r>   -14.1392     0.0000     2.0000 </r>
       <r>   -14.0325     0.0000     2.0000 </r>
       <r>   -13.9259     0.0000     2.0000 </r>
       <r>   -13.8192     0.0000     2.0000 </r>
       <r>   -13.7125     0.0000     2.0000 </r>
       <r>   -13.6059     0.0000     2.0000 </r>
       <r>   -13.4992     0.0000     2.0000 </r>
       <r>   -13.3926     0.0000     2.0000 </r>
       <r>   -13.2859     0.0000     2.0000 </r>
       <r>   -13.1793     0.0000     2.0000 </r>
       <r>   -13.0726     0.0000     2.0000 </r>
       <r>   -12.9659     0.0000     2.0000 </r>
       <r>   -12.8593     0.0000     2.0000 </r>
       <r>   -12.7526     0.0000     2.0000 </r>
       <r>   -12.6460     0.0000     2.0000 </r>
       <r>   -12.5393     0.0000     2.0000 </r>
       <r>   -12.4327     0.0000     2.0000 </r>
       <r>   -12.3260     0.0000     2.0000 </r>
       <r>   -12.2193     0.0000     2.0000 </r>
       <r>   -12.1127     0.0000     2.0000 </r>
       <r>   -12.0060     0.0000     2.0000 </r>
       <r>   -11.8994    -0.0000     2.0000 </r>
       <r>   -11.7927    -0.0000     2.0000 </r>
       <r>   -11.6861    -0.0000     2.0000 </r>
       <r>   -11.5794    -0.0000     2.0000 </r>
       <r>   -11.4727    -0.0000     2.0000 </r>
       <r>   -11.3661    -0.0021     1.9998 </r>
       <r>   -11.2594    -0.1996     1.9785 </r>
       <r>   -11.1528     0.2193     2.0019 </r>
       <r>   -11.0461    12.8840     3.3761 </r>
       <r>   -10.9395     6.5017     4.0695 </r>
       <r>   -10.8328    -0.6122     4.0042 </r>
       <r>   -10.7261    -0.0393     4.0000 </r>
       <r>   -10.6195    -0.0001     4.0000 </r>
       <r>   -10.5128    -0.0000     4.0000 </r>
       <r>   -10.4062    -0.0039     3.9996 </r>
       <r>   -10.2995    -0.0460     3.9947 </r>
       <r>   -10.1929     0.3062     4.0273 </r>
       <r>   -10.0862     2.5081     4.2948 </r>
       <r>    -9.9795     5.1144     4.8403 </r>
       <r>    -9.8729     0.4981     4.8935 </r>
       <r>    -9.7662     4.9847     5.4251 </r>
       <r>    -9.6596     6.2359     6.0902 </r>
       <r>    -9.5529     2.8502     6.3942 </r>
       <r>    -9.4463    -0.5754     6.3328 </r>
       <r>    -9.3396     3.9822     6.7576 </r>
       <r>    -9.2329     9.7254     7.7948 </r>
       <r>    -9.1263     2.3652     8.0471 </r>
       <r>    -9.0196     5.0478     8.5855 </r>
       <r>    -8.9130     0.4497     8.6335 </r>
       <r>    -8.8063     2.4416     8.8939 </r>
       <r>    -8.6997    14.5222    10.4428 </r>
       <r>    -8.5930    12.7286    11.8004 </r>
       <r>    -8.4863     8.2315    12.6783 </r>
       <r>    -8.3797    17.1537    14.5079 </r>
       <r>    -8.2730    11.5711    15.7420 </r>
       <r>    -8.1664     1.6540    15.9185 </r>
       <r>    -8.0597    12.0695    17.2058 </r>
       <r>    -7.9531    25.4490    19.9201 </r>
       <r>    -7.8464    10.6923    21.0605 </r>
       <r>    -7.7397     8.7158    21.9901 </r>
       <r>    -7.6331    15.9148    23.6875 </r>
       <r>    -7.5264    51.5356    29.1842 </r>
       <r>    -7.4198    53.6513    34.9065 </r>
       <r>    -7.3131    47.4029    39.9623 </r>
       <r>    -7.2065    33.1275    43.4956 </r>
       <r>    -7.0998    60.6670    49.9662 </r>
       <r>    -6.9931    57.3666    56.0848 </r>
       <r>    -6.8865    49.8335    61.3999 </r>
       <r>    -6.7798    57.4008    67.5221 </r>
       <r>    -6.6732    68.1136    74.7869 </r>
       <r>    -6.5665    90.7941    84.4707 </r>
       <r>    -6.4599   105.1860    95.6896 </r>
       <r>    -6.3532    89.8655   105.2744 </r>
       <r>    -6.2465    95.1312   115.4208 </r>
       <r>    -6.1399    90.3647   125.0589 </r>
       <r>    -6.0332    72.5020   132.7917 </r>
       <r>    -5.9266    66.7855   139.9149 </r>
       <r>    -5.8199    52.8480   145.5515 </r>
       <r>    -5.7133    33.0734   149.0790 </r>
       <r>    -5.6066    91.5008   158.8383 </r>
       <r>    -5.4999    97.4805   169.2353 </r>
       <r>    -5.3933    73.9927   177.1271 </r>
       <r>    -5.2866    76.0400   185.2374 </r>
       <r>    -5.1800    89.7388   194.8087 </r>
       <r>    -5.0733    91.3359   204.5503 </r>
       <r>    -4.9667    75.1828   212.5691 </r>
       <r>    -4.8600    68.4832   219.8733 </r>
       <r>    -4.7533    70.9514   227.4408 </r>
       <r>    -4.6467    90.4241   237.0852 </r>
       <r>    -4.5400   106.4775   248.4418 </r>
       <r>    -4.4334   131.5795   262.4757 </r>
       <r>    -4.3267   126.9712   276.0181 </r>
       <r>    -4.2201    97.1089   286.3755 </r>
       <r>    -4.1134   137.7476   301.0673 </r>
       <r>    -4.0067   152.9142   317.3767 </r>
       <r>    -3.9001   148.3694   333.2013 </r>
       <r>    -3.7934   141.6782   348.3124 </r>
       <r>    -3.6868   147.0660   363.9980 </r>
       <r>    -3.5801   143.0374   379.2540 </r>
       <r>    -3.4734    94.7683   389.3617 </r>
       <r>    -3.3668    72.5358   397.0982 </r>
       <r>    -3.2601    77.0932   405.3207 </r>
       <r>    -3.1535    73.1462   413.1223 </r>
       <r>    -3.0468    74.9986   421.1215 </r>
       <r>    -2.9402   134.8852   435.5080 </r>
       <r>    -2.8335   134.8566   449.8914 </r>
       <r>    -2.7268    87.4627   459.2199 </r>
       <r>    -2.6202    78.3398   467.5755 </r>
       <r>    -2.5135    76.7053   475.7566 </r>
       <r>    -2.4069    86.4947   484.9819 </r>
       <r>    -2.3002    85.9772   494.1520 </r>
       <r>    -2.1936    97.5426   504.5557 </r>
       <r>    -2.0869   110.2207   516.3115 </r>
       <r>    -1.9802   144.0419   531.6746 </r>
       <r>    -1.8736   128.7862   545.4106 </r>
       <r>    -1.7669   109.2881   557.0670 </r>
       <r>    -1.6603    67.9886   564.3184 </r>
       <r>    -1.5536    67.7117   571.5404 </r>
       <r>    -1.4470   113.0520   583.5982 </r>
       <r>    -1.3403   115.5686   595.9244 </r>
       <r>    -1.2336    88.7632   605.3917 </r>
       <r>    -1.1270   108.4502   616.9587 </r>
       <r>    -1.0203   134.6507   631.3202 </r>
       <r>    -0.9137   163.3327   648.7408 </r>
       <r>    -0.8070   134.8682   663.1254 </r>
       <r>    -0.7004   104.5901   674.2807 </r>
       <r>    -0.5937    91.9387   684.0867 </r>
       <r>    -0.4870    44.8024   688.8652 </r>
       <r>    -0.3804    12.4529   690.1934 </r>
       <r>    -0.2737    25.1275   692.8734 </r>
       <r>    -0.1671    19.5280   694.9562 </r>
       <r>    -0.0604    13.2183   696.3660 </r>
       <r>     0.0462    27.5606   699.3056 </r>
       <r>     0.1529    30.7893   702.5895 </r>
       <r>     0.2596    27.3249   705.5039 </r>
       <r>     0.3662    34.3113   709.1634 </r>
       <r>     0.4729    18.8791   711.1770 </r>
       <r>     0.5795    15.6022   712.8411 </r>
       <r>     0.6862     7.1957   713.6086 </r>
       <r>     0.7928     4.1341   714.0495 </r>
       <r>     0.8995    17.1144   715.8749 </r>
       <r>     1.0062    18.6731   717.8665 </r>
       <r>     1.1128    28.7704   720.9351 </r>
       <r>     1.2195    24.0691   723.5022 </r>
       <r>     1.3261    29.7851   726.6790 </r>
       <r>     1.4328    28.1273   729.6790 </r>
       <r>     1.5394    26.9339   732.5517 </r>
       <r>     1.6461    19.2051   734.6000 </r>
       <r>     1.7528    10.4611   735.7158 </r>
       <r>     1.8594    19.6714   737.8139 </r>
       <r>     1.9661    12.3963   739.1360 </r>
       <r>     2.0727    25.7984   741.8876 </r>
       <r>     2.1794    23.3017   744.3729 </r>
       <r>     2.2860    17.1830   746.2056 </r>
       <r>     2.3927    21.7547   748.5259 </r>
       <r>     2.4994    27.9188   751.5037 </r>
       <r>     2.6060    20.6306   753.7041 </r>
       <r>     2.7127    15.0446   755.3087 </r>
       <r>     2.8193    16.0661   757.0223 </r>
       <r>     2.9260    28.0730   760.0164 </r>
       <r>     3.0326    25.3515   762.7204 </r>
       <r>     3.1393    19.0382   764.7509 </r>
       <r>     3.2460    18.6686   766.7421 </r>
       <r>     3.3526    19.5506   768.8273 </r>
       <r>     3.4593    37.1509   772.7897 </r>
       <r>     3.5659     8.7780   773.7259 </r>
       <r>     3.6726    12.8029   775.0915 </r>
       <r>     3.7792    13.3943   776.5201 </r>
       <r>     3.8859     8.4573   777.4221 </r>
       <r>     3.9926     5.0050   777.9559 </r>
       <r>     4.0992    18.1894   779.8959 </r>
       <r>     4.2059    18.9077   781.9126 </r>
       <r>     4.3125    12.3517   783.2300 </r>
       <r>     4.4192     1.8630   783.4287 </r>
       <r>     4.5258     5.0646   783.9689 </r>
       <r>     4.6325     0.4042   784.0120 </r>
       <r>     4.7392    -0.1105   784.0002 </r>
       <r>     4.8458    -0.0017   784.0000 </r>
       <r>     4.9525    -0.0000   784.0000 </r>
       <r>     5.0591    -0.0000   784.0000 </r>
       <r>     5.1658    -0.0000   784.0000 </r>
       <r>     5.2724     0.0000   784.0000 </r>
       <r>     5.3791     0.0000   784.0000 </r>
       <r>     5.4858     0.0000   784.0000 </r>
       <r>     5.5924     0.0000   784.0000 </r>
       <r>     5.6991     0.0000   784.0000 </r>
       <r>     5.8057     0.0000   784.0000 </r>
       <r>     5.9124     0.0000   784.0000 </r>
      </set>
     </set>
    </array>
   </total>
  </dos>
 </calculation>
 <structure name="finalpos" >
  <crystal>
   <varray name="basis" >
    <v>      11.21440000       0.00000000       0.00000000 </v>
    <v>       5.60720000       9.71195529       0.00000000 </v>
    <v>       0.00000000       0.00000000      31.44560000 </v>
   </varray>
   <i name="volume">   3424.85826052 </i>
   <varray name="rec_basis" >
    <v>       0.08917107      -0.05148294       0.00000000 </v>
    <v>       0.00000000       0.10296588       0.00000000 </v>
    <v>       0.00000000       0.00000000       0.03180095 </v>
   </varray>
  </crystal>
  <varray name="positions" >
   <v>       0.08333000       0.33333000       0.39081000 </v>
   <v>       0.08333000       0.08333000       0.39081000 </v>
   <v>       0.33333000       0.33333000       0.39081000 </v>
   <v>       0.33333000       0.08333000       0.39081000 </v>
   <v>       0.41667000       0.16667000       0.46360000 </v>
   <v>       0.41667000       0.41667000       0.46360000 </v>
   <v>       0.16667000       0.16667000       0.46360000 </v>
   <v>       0.16667000       0.41667000       0.46360000 </v>
   <v>       0.24951926       0.00055800       0.53568836 </v>
   <v>       0.25027000       0.25008522       0.53529254 </v>
   <v>       0.49956672       0.00097941       0.53535813 </v>
   <v>       0.50056570       0.25220483       0.53764513 </v>
   <v>       0.08260975       0.33384429       0.60889287 </v>
   <v>       0.08260699       0.08451868       0.60893195 </v>
   <v>       0.32672308       0.33478154       0.60874483 </v>
   <v>       0.33224144       0.08424246       0.60900507 </v>
   <v>       0.08333000       0.83333000       0.39081000 </v>
   <v>       0.08333000       0.58333000       0.39081000 </v>
   <v>       0.33333000       0.83333000       0.39081000 </v>
   <v>       0.33333000       0.58333000       0.39081000 </v>
   <v>       0.41667000       0.66667000       0.46360000 </v>
   <v>       0.41667000       0.91667000       0.46360000 </v>
   <v>       0.16667000       0.66667000       0.46360000 </v>
   <v>       0.16667000       0.91667000       0.46360000 </v>
   <v>       0.24958714       0.50038431       0.53571004 </v>
   <v>       0.24980554       0.75046876       0.53524572 </v>
   <v>       0.50016327       0.49905522       0.53723481 </v>
   <v>       0.49955578       0.75018622       0.53528848 </v>
   <v>       0.08218648       0.83526936       0.60887576 </v>
   <v>       0.08092425       0.58532500       0.60893022 </v>
   <v>       0.33206301       0.83519811       0.60887279 </v>
   <v>       0.32651076       0.59018612       0.60847888 </v>
   <v>       0.58333000       0.33333000       0.39081000 </v>
   <v>       0.58333000       0.08333000       0.39081000 </v>
   <v>       0.83333000       0.33333000       0.39081000 </v>
   <v>       0.83333000       0.08333000       0.39081000 </v>
   <v>       0.91667000       0.16667000       0.46360000 </v>
   <v>       0.91667000       0.41667000       0.46360000 </v>
   <v>       0.66667000       0.16667000       0.46360000 </v>
   <v>       0.66667000       0.41667000       0.46360000 </v>
   <v>       0.74955488       0.00058008       0.53573887 </v>
   <v>       0.74565063       0.25257297       0.53808463 </v>
   <v>      -0.00141715       0.00156174       0.53543602 </v>
   <v>      -0.00119596       0.25035481       0.53534963 </v>
   <v>       0.58219796       0.33511270       0.61475720 </v>
   <v>       0.58235663       0.08014347       0.60874544 </v>
   <v>       0.83706587       0.33472168       0.60899167 </v>
   <v>       0.83621343       0.08030464       0.60906383 </v>
   <v>       0.58333000       0.83333000       0.39081000 </v>
   <v>       0.58333000       0.58333000       0.39081000 </v>
   <v>       0.83333000       0.83333000       0.39081000 </v>
   <v>       0.83333000       0.58333000       0.39081000 </v>
   <v>       0.91667000       0.66667000       0.46360000 </v>
   <v>       0.91667000       0.91667000       0.46360000 </v>
   <v>       0.66667000       0.66667000       0.46360000 </v>
   <v>       0.66667000       0.91667000       0.46360000 </v>
   <v>       0.74961313       0.50030510       0.53576719 </v>
   <v>       0.74955029       0.75044470       0.53567530 </v>
   <v>      -0.00010693       0.50000806       0.53566813 </v>
   <v>      -0.00035636       0.75056571       0.53563828 </v>
   <v>       0.58177558       0.83488876       0.60890566 </v>
   <v>       0.58256512       0.58969850       0.60862640 </v>
   <v>       0.83260115       0.83398279       0.60900740 </v>
   <v>       0.83285949       0.58515919       0.60895509 </v>
   <v>       0.54177485       0.37748923       0.70897841 </v>
   <v>       0.55833820       0.35952235       0.67262490 </v>
  </varray>
  <varray name="selective"  type="logical" >
   <v type="logical" >  F  F  F </v>
   <v type="logical" >  F  F  F </v>
   <v type="logical" >  F  F  F </v>
   <v type="logical" >  F  F  F </v>
   <v type="logical" >  F  F  F </v>
   <v type="logical" >  F  F  F </v>
   <v type="logical" >  F  F  F </v>
   <v type="logical" >  F  F  F </v>
   <v type="logical" >  T  T  T </v>
   <v type="logical" >  T  T  T </v>
   <v type="logical" >  T  T  T </v>
   <v type="logical" >  T  T  T </v>
   <v type="logical" >  T  T  T </v>
   <v type="logical" >  T  T  T </v>
   <v type="logical" >  T  T  T </v>
   <v type="logical" >  T  T  T </v>
   <v type="logical" >  F  F  F </v>
   <v type="logical" >  F  F  F </v>
   <v type="logical" >  F  F  F </v>
   <v type="logical" >  F  F  F </v>
   <v type="logical" >  F  F  F </v>
   <v type="logical" >  F  F  F </v>
   <v type="logical" >  F  F  F </v>
   <v type="logical" >  F  F  F </v>
   <v type="logical" >  T  T  T </v>
   <v type="logical" >  T  T  T </v>
   <v type="logical" >  T  T  T </v>
   <v type="logical" >  T  T  T </v>
   <v type="logical" >  T  T  T </v>
   <v type="logical" >  T  T  T </v>
   <v type="logical" >  T  T  T </v>
   <v type="logical" >  T  T  T </v>
   <v type="logical" >  F  F  F </v>
   <v type="logical" >  F  F  F </v>
   <v type="logical" >  F  F  F </v>
   <v type="logical" >  F  F  F </v>
   <v type="logical" >  F  F  F </v>
   <v type="logical" >  F  F  F </v>
   <v type="logical" >  F  F  F </v>
   <v type="logical" >  F  F  F </v>
   <v type="logical" >  T  T  T </v>
   <v type="logical" >  T  T  T </v>
   <v type="logical" >  T  T  T </v>
   <v type="logical" >  T  T  T </v>
   <v type="logical" >  T  T  T </v>
   <v type="logical" >  T  T  T </v>
   <v type="logical" >  T  T  T </v>
   <v type="logical" >  T  T  T </v>
   <v type="logical" >  F  F  F </v>
   <v type="logical" >  F  F  F </v>
   <v type="logical" >  F  F  F </v>
   <v type="logical" >  F  F  F </v>
   <v type="logical" >  F  F  F </v>
   <v type="logical" >  F  F  F </v>
   <v type="logical" >  F  F  F </v>
   <v type="logical" >  F  F  F </v>
   <v type="logical" >  T  T  T </v>
   <v type="logical" >  T  T  T </v>
   <v type="logical" >  T  T  T </v>
   <v type="logical" >  T  T  T </v>
   <v type="logical" >  T  T  T </v>
   <v type="logical" >  T  T  T </v>
   <v type="logical" >  T  T  T </v>
   <v type="logical" >  T  T  T </v>
   <v type="logical" >  T  T  T </v>
   <v type="logical" >  T  T  T </v>
  </varray>
  <nose>
   <v>      -3.00000000       0.00000000       0.00010000       0.00010000 </v>
  </nose>
 </structure>
</modeling>
