Pt                                      
           1
    11.214400    0.000000    0.000000
     5.607200    9.711955    0.000000
     0.000000    0.000000   31.445600
   Pt   O    C 
  64   1   1
Direct configuration=     1
   0.08333000  0.33333000  0.39081000
   0.08333000  0.08333000  0.39081000
   0.33333000  0.33333000  0.39081000
   0.33333000  0.08333000  0.39081000
   0.41667000  0.16667000  0.46360000
   0.41667000  0.41667000  0.46360000
   0.16667000  0.16667000  0.46360000
   0.16667000  0.41667000  0.46360000
   0.25000000  0.00000000  0.53640000
   0.25000000  0.25000000  0.53640000
   0.50000000  0.00000000  0.53640000
   0.50000000  0.25000000  0.53640000
   0.08333000  0.33333000  0.60919000
   0.08333000  0.08333000  0.60919000
   0.33333000  0.33333000  0.60919000
   0.33333000  0.08333000  0.60919000
   0.08333000  0.83333000  0.39081000
   0.08333000  0.58333000  0.39081000
   0.33333000  0.83333000  0.39081000
   0.33333000  0.58333000  0.39081000
   0.41667000  0.66667000  0.46360000
   0.41667000  0.91667000  0.46360000
   0.16667000  0.66667000  0.46360000
   0.16667000  0.91667000  0.46360000
   0.25000000  0.50000000  0.53640000
   0.25000000  0.75000000  0.53640000
   0.50000000  0.50000000  0.53640000
   0.50000000  0.75000000  0.53640000
   0.08333000  0.83333000  0.60919000
   0.08333000  0.58333000  0.60919000
   0.33333000  0.83333000  0.60919000
   0.33333000  0.58333000  0.60919000
   0.58333000  0.33333000  0.39081000
   0.58333000  0.08333000  0.39081000
   0.83333000  0.33333000  0.39081000
   0.83333000  0.08333000  0.39081000
   0.91667000  0.16667000  0.46360000
   0.91667000  0.41667000  0.46360000
   0.66667000  0.16667000  0.46360000
   0.66667000  0.41667000  0.46360000
   0.75000000  0.00000000  0.53640000
   0.75000000  0.25000000  0.53640000
   0.00000000  0.00000000  0.53640000
   0.00000000  0.25000000  0.53640000
   0.58333000  0.33333000  0.60919000
   0.58333000  0.08333000  0.60919000
   0.83333000  0.33333000  0.60919000
   0.83333000  0.08333000  0.60919000
   0.58333000  0.83333000  0.39081000
   0.58333000  0.58333000  0.39081000
   0.83333000  0.83333000  0.39081000
   0.83333000  0.58333000  0.39081000
   0.91667000  0.66667000  0.46360000
   0.91667000  0.91667000  0.46360000
   0.66667000  0.66667000  0.46360000
   0.66667000  0.91667000  0.46360000
   0.75000000  0.50000000  0.53640000
   0.75000000  0.75000000  0.53640000
   0.00000000  0.50000000  0.53640000
   0.00000000  0.75000000  0.53640000
   0.58333000  0.83333000  0.60919000
   0.58333000  0.58333000  0.60919000
   0.83333000  0.83333000  0.60919000
   0.83333000  0.58333000  0.60919000
   0.50648000  0.41571000  0.72289000
   0.50648000  0.41571000  0.68631000
Direct configuration=     2
   0.08333000  0.33333000  0.39081000
   0.08333000  0.08333000  0.39081000
   0.33333000  0.33333000  0.39081000
   0.33333000  0.08333000  0.39081000
   0.41667000  0.16667000  0.46360000
   0.41667000  0.41667000  0.46360000
   0.16667000  0.16667000  0.46360000
   0.16667000  0.41667000  0.46360000
   0.25000792  0.00001236  0.53609314
   0.24998959  0.24992353  0.53605681
   0.49995609  0.00003104  0.53609304
   0.50011426  0.25006272  0.53610737
   0.08332128  0.33334417  0.60931347
   0.08330094  0.08334891  0.60930321
   0.33257455  0.33326368  0.60923333
   0.33334961  0.08333918  0.60930783
   0.08333000  0.83333000  0.39081000
   0.08333000  0.58333000  0.39081000
   0.33333000  0.83333000  0.39081000
   0.33333000  0.58333000  0.39081000
   0.41667000  0.66667000  0.46360000
   0.41667000  0.91667000  0.46360000
   0.16667000  0.66667000  0.46360000
   0.16667000  0.91667000  0.46360000
   0.24997376  0.50000065  0.53613299
   0.25007246  0.74997300  0.53610782
   0.50001209  0.50004598  0.53590433
   0.49992033  0.75000609  0.53609851
   0.08324973  0.83336631  0.60930867
   0.08327033  0.58335025  0.60927794
   0.33331528  0.83339530  0.60930146
   0.33258032  0.58395220  0.60943822
   0.58333000  0.33333000  0.39081000
   0.58333000  0.08333000  0.39081000
   0.83333000  0.33333000  0.39081000
   0.83333000  0.08333000  0.39081000
   0.91667000  0.16667000  0.46360000
   0.91667000  0.41667000  0.46360000
   0.66667000  0.16667000  0.46360000
   0.66667000  0.41667000  0.46360000
   0.75006256 -0.00012544  0.53612968
   0.74956599  0.25018385  0.53625313
   0.00004635  0.00000430  0.53608852
   0.00007234  0.24994814  0.53606982
   0.58255788  0.33422132  0.61086770
   0.58343533  0.08276897  0.60926098
   0.83386541  0.33334526  0.60928936
   0.83377572  0.08282096  0.60929024
   0.58333000  0.83333000  0.39081000
   0.58333000  0.58333000  0.39081000
   0.83333000  0.83333000  0.39081000
   0.83333000  0.58333000  0.39081000
   0.91667000  0.66667000  0.46360000
   0.91667000  0.91667000  0.46360000
   0.66667000  0.66667000  0.46360000
   0.66667000  0.91667000  0.46360000
   0.75002564  0.50000478  0.53614067
   0.74999845  0.75002554  0.53612707
   0.00000484  0.49997838  0.53611565
  -0.00004576  0.75005234  0.53612063
   0.58338227  0.83330986  0.60931449
   0.58362060  0.58406438  0.60921546
   0.83330690  0.83333794  0.60931259
   0.83331341  0.58334481  0.60930192
   0.50625223  0.41594245  0.72226902
   0.50819054  0.41391113  0.68563583
Direct configuration=     3
   0.08333000  0.33333000  0.39081000
   0.08333000  0.08333000  0.39081000
   0.33333000  0.33333000  0.39081000
   0.33333000  0.08333000  0.39081000
   0.41667000  0.16667000  0.46360000
   0.41667000  0.41667000  0.46360000
   0.16667000  0.16667000  0.46360000
   0.16667000  0.41667000  0.46360000
   0.25003167  0.00004943  0.53517256
   0.24995835  0.24969410  0.53502726
   0.49982435  0.00012417  0.53517214
   0.50045703  0.25025086  0.53522948
   0.08329512  0.33338666  0.60968389
   0.08321378  0.08340565  0.60964282
   0.33030821  0.33306471  0.60936332
   0.33340844  0.08336671  0.60966133
   0.08333000  0.83333000  0.39081000
   0.08333000  0.58333000  0.39081000
   0.33333000  0.83333000  0.39081000
   0.33333000  0.58333000  0.39081000
   0.41667000  0.66667000  0.46360000
   0.41667000  0.91667000  0.46360000
   0.16667000  0.66667000  0.46360000
   0.16667000  0.91667000  0.46360000
   0.24989504  0.50000261  0.53533196
   0.25028983  0.74989200  0.53523129
   0.50004835  0.50018393  0.53441731
   0.49968131  0.75002438  0.53519405
   0.08300893  0.83347523  0.60966467
   0.08309130  0.58341100  0.60954177
   0.33327111  0.83359120  0.60963584
   0.33033126  0.58581879  0.61018289
   0.58333000  0.33333000  0.39081000
   0.58333000  0.08333000  0.39081000
   0.83333000  0.33333000  0.39081000
   0.83333000  0.08333000  0.39081000
   0.91667000  0.16667000  0.46360000
   0.91667000  0.41667000  0.46360000
   0.66667000  0.16667000  0.46360000
   0.66667000  0.41667000  0.46360000
   0.75025026 -0.00050175  0.53531871
   0.74826397  0.25073538  0.53581251
   0.00018539  0.00001720  0.53515410
   0.00028934  0.24979256  0.53507928
   0.58024152  0.33689529  0.61590080
   0.58375132  0.08108589  0.60947394
   0.83547163  0.33339104  0.60958743
   0.83511288  0.08129383  0.60959096
   0.58333000  0.83333000  0.39081000
   0.58333000  0.58333000  0.39081000
   0.83333000  0.83333000  0.39081000
   0.83333000  0.58333000  0.39081000
   0.91667000  0.66667000  0.46360000
   0.91667000  0.91667000  0.46360000
   0.66667000  0.66667000  0.46360000
   0.66667000  0.91667000  0.46360000
   0.75010254  0.50001911  0.53536268
   0.74999381  0.75010214  0.53530829
   0.00001936  0.49991352  0.53526260
  -0.00018303  0.75020934  0.53528252
   0.58353908  0.83324945  0.60968795
   0.58449240  0.58626753  0.60929183
   0.83323761  0.83336177  0.60968036
   0.83326364  0.58338926  0.60963770
   0.50556891  0.41663981  0.72040608
   0.51332214  0.40851451  0.68361330
Direct configuration=     4
   0.08333000  0.33333000  0.39081000
   0.08333000  0.08333000  0.39081000
   0.33333000  0.33333000  0.39081000
   0.33333000  0.08333000  0.39081000
   0.41667000  0.16667000  0.46360000
   0.41667000  0.41667000  0.46360000
   0.16667000  0.16667000  0.46360000
   0.16667000  0.41667000  0.46360000
   0.25007918  0.00012358  0.53333139
   0.24989588  0.24923526  0.53296814
   0.49956089  0.00031041  0.53333035
   0.50114258  0.25062715  0.53347371
   0.08324280  0.33347165  0.61042473
   0.08303944  0.08351913  0.61032206
   0.32577552  0.33266678  0.60962330
   0.33352610  0.08342179  0.61036833
   0.08333000  0.83333000  0.39081000
   0.08333000  0.58333000  0.39081000
   0.33333000  0.83333000  0.39081000
   0.33333000  0.58333000  0.39081000
   0.41667000  0.66667000  0.46360000
   0.41667000  0.91667000  0.46360000
   0.16667000  0.66667000  0.46360000
   0.16667000  0.91667000  0.46360000
   0.24973761  0.50000653  0.53372989
   0.25072459  0.74972999  0.53347821
   0.50012087  0.50045984  0.53144327
   0.49920328  0.75006094  0.53338513
   0.08252733  0.83369308  0.61037666
   0.08273326  0.58353249  0.61006942
   0.33318276  0.83398299  0.61030460
   0.32583316  0.58955197  0.61167223
   0.58333000  0.33333000  0.39081000
   0.58333000  0.08333000  0.39081000
   0.83333000  0.33333000  0.39081000
   0.83333000  0.08333000  0.39081000
   0.91667000  0.16667000  0.46360000
   0.91667000  0.41667000  0.46360000
   0.66667000  0.16667000  0.46360000
   0.66667000  0.41667000  0.46360000
   0.75062564 -0.00125438  0.53369678
   0.74565993  0.25183845  0.53493129
   0.00046346  0.00004300  0.53328524
   0.00072336  0.24948139  0.53309821
   0.57560880  0.34224323  0.62596700
   0.58438330  0.07771973  0.60989984
   0.83868407  0.33348259  0.61018358
   0.83778719  0.07823958  0.61019241
   0.58333000  0.83333000  0.39081000
   0.58333000  0.58333000  0.39081000
   0.83333000  0.83333000  0.39081000
   0.83333000  0.58333000  0.39081000
   0.91667000  0.66667000  0.46360000
   0.91667000  0.91667000  0.46360000
   0.66667000  0.66667000  0.46360000
   0.66667000  0.91667000  0.46360000
   0.75025636  0.50004778  0.53380669
   0.74998452  0.75025535  0.53367073
   0.00004841  0.49978380  0.53355651
  -0.00045757  0.75052335  0.53360629
   0.58385270  0.83312863  0.61043487
   0.58623601  0.59067382  0.60944458
   0.83309902  0.83340943  0.61041589
   0.83316410  0.58347814  0.61030925
   0.50420227  0.41803451  0.71668020
   0.52358535  0.39772129  0.67956825
Direct configuration=     5
   0.08333000  0.33333000  0.39081000
   0.08333000  0.08333000  0.39081000
   0.33333000  0.33333000  0.39081000
   0.33333000  0.08333000  0.39081000
   0.41667000  0.16667000  0.46360000
   0.41667000  0.41667000  0.46360000
   0.16667000  0.16667000  0.46360000
   0.16667000  0.41667000  0.46360000
   0.25003908  0.00006099  0.53488558
   0.24994861  0.24962258  0.53470630
   0.49978329  0.00015320  0.53488506
   0.50056389  0.25030951  0.53495581
   0.08328697  0.33339991  0.60979937
   0.08318660  0.08342334  0.60974870
   0.32960170  0.33300269  0.60940384
   0.33342678  0.08337530  0.60977153
   0.08333000  0.83333000  0.39081000
   0.08333000  0.58333000  0.39081000
   0.33333000  0.83333000  0.39081000
   0.33333000  0.58333000  0.39081000
   0.41667000  0.66667000  0.46360000
   0.41667000  0.91667000  0.46360000
   0.16667000  0.66667000  0.46360000
   0.16667000  0.91667000  0.46360000
   0.24987050  0.50000322  0.53508224
   0.25035760  0.74986674  0.53495804
   0.50005965  0.50022694  0.53395375
   0.49960680  0.75003008  0.53491210
   0.08293386  0.83350919  0.60977564
   0.08303550  0.58342994  0.60962402
   0.33325734  0.83365227  0.60974008
   0.32963015  0.58640068  0.61041503
   0.58333000  0.33333000  0.39081000
   0.58333000  0.08333000  0.39081000
   0.83333000  0.33333000  0.39081000
   0.83333000  0.08333000  0.39081000
   0.91667000  0.16667000  0.46360000
   0.91667000  0.41667000  0.46360000
   0.66667000  0.16667000  0.46360000
   0.66667000  0.41667000  0.46360000
   0.75030877 -0.00061907  0.53506590
   0.74785808  0.25090732  0.53567516
   0.00022873  0.00002122  0.53486280
   0.00035699  0.24974405  0.53477049
   0.57951942  0.33772887  0.61746981
   0.58384982  0.08056121  0.60954032
   0.83597235  0.33340531  0.60968035
   0.83552972  0.08081777  0.60968471
   0.58333000  0.83333000  0.39081000
   0.58333000  0.58333000  0.39081000
   0.83333000  0.83333000  0.39081000
   0.83333000  0.58333000  0.39081000
   0.91667000  0.66667000  0.46360000
   0.91667000  0.91667000  0.46360000
   0.66667000  0.66667000  0.46360000
   0.66667000  0.91667000  0.46360000
   0.75012652  0.50002358  0.53512015
   0.74999236  0.75012602  0.53505305
   0.00002389  0.49989330  0.53499667
  -0.00022582  0.75025828  0.53502124
   0.58358796  0.83323062  0.60980437
   0.58476418  0.58695434  0.60931564
   0.83321601  0.83336920  0.60979500
   0.83324813  0.58340311  0.60974237
   0.50535589  0.41685720  0.71982533
   0.51492186  0.40683218  0.68298280
Direct configuration=     6
   0.08333000  0.33333000  0.39081000
   0.08333000  0.08333000  0.39081000
   0.33333000  0.33333000  0.39081000
   0.33333000  0.08333000  0.39081000
   0.41667000  0.16667000  0.46360000
   0.41667000  0.41667000  0.46360000
   0.16667000  0.16667000  0.46360000
   0.16667000  0.41667000  0.46360000
   0.25005913  0.00009229  0.53410848
   0.24992225  0.24942892  0.53383722
   0.49967209  0.00023180  0.53410771
   0.50085324  0.25046833  0.53421476
   0.08326488  0.33343578  0.61011205
   0.08311302  0.08347123  0.61003538
   0.32768861  0.33283473  0.60951357
   0.33347644  0.08339854  0.61006993
   0.08333000  0.83333000  0.39081000
   0.08333000  0.58333000  0.39081000
   0.33333000  0.83333000  0.39081000
   0.33333000  0.58333000  0.39081000
   0.41667000  0.66667000  0.46360000
   0.41667000  0.91667000  0.46360000
   0.16667000  0.66667000  0.46360000
   0.16667000  0.91667000  0.46360000
   0.24980405  0.50000488  0.53440607
   0.25054109  0.74979837  0.53421812
   0.50009026  0.50034339  0.53269851
   0.49940504  0.75004551  0.53414861
   0.08273059  0.83360113  0.61007615
   0.08288438  0.58348121  0.60984672
   0.33322005  0.83381763  0.61002234
   0.32773165  0.58797632  0.61104363
   0.58333000  0.33333000  0.39081000
   0.58333000  0.08333000  0.39081000
   0.83333000  0.33333000  0.39081000
   0.83333000  0.08333000  0.39081000
   0.91667000  0.16667000  0.46360000
   0.91667000  0.41667000  0.46360000
   0.66667000  0.16667000  0.46360000
   0.66667000  0.41667000  0.46360000
   0.75046721 -0.00093672  0.53438134
   0.74675900  0.25137288  0.53530322
   0.00034610  0.00003211  0.53407402
   0.00054017  0.24961272  0.53393435
   0.57756411  0.33998605  0.62171841
   0.58411656  0.07914047  0.60972008
   0.83732821  0.33344395  0.60993197
   0.83665845  0.07952868  0.60993856
   0.58333000  0.83333000  0.39081000
   0.58333000  0.58333000  0.39081000
   0.83333000  0.83333000  0.39081000
   0.83333000  0.58333000  0.39081000
   0.91667000  0.66667000  0.46360000
   0.91667000  0.91667000  0.46360000
   0.66667000  0.66667000  0.46360000
   0.66667000  0.91667000  0.46360000
   0.75019144  0.50003568  0.53446342
   0.74998844  0.75019069  0.53436189
   0.00003615  0.49983855  0.53427659
  -0.00034170  0.75039082  0.53431377
   0.58372033  0.83317963  0.61011962
   0.58550009  0.58881408  0.60938011
   0.83315752  0.83338932  0.61010545
   0.83320611  0.58344063  0.61002581
   0.50477908  0.41744586  0.71825276
   0.51925361  0.40227673  0.68127553
Direct configuration=     7
   0.08333000  0.33333000  0.39081000
   0.08333000  0.08333000  0.39081000
   0.33333000  0.33333000  0.39081000
   0.33333000  0.08333000  0.39081000
   0.41667000  0.16667000  0.46360000
   0.41667000  0.41667000  0.46360000
   0.16667000  0.16667000  0.46360000
   0.16667000  0.41667000  0.46360000
   0.25005178  0.00008082  0.53439326
   0.24993191  0.24949989  0.53415571
   0.49971284  0.00020300  0.53439258
   0.50074720  0.25041013  0.53448633
   0.08327298  0.33342264  0.60999746
   0.08313999  0.08345368  0.60993032
   0.32838969  0.33289628  0.60947336
   0.33345824  0.08339002  0.60996058
   0.08333000  0.83333000  0.39081000
   0.08333000  0.58333000  0.39081000
   0.33333000  0.83333000  0.39081000
   0.33333000  0.58333000  0.39081000
   0.41667000  0.66667000  0.46360000
   0.41667000  0.91667000  0.46360000
   0.16667000  0.66667000  0.46360000
   0.16667000  0.91667000  0.46360000
   0.24982841  0.50000427  0.53465386
   0.25047385  0.74982342  0.53448928
   0.50007904  0.50030071  0.53315851
   0.49947898  0.75003986  0.53442840
   0.08280509  0.83356744  0.60996603
   0.08293976  0.58346242  0.60976511
   0.33323371  0.83375703  0.60991890
   0.32842739  0.58739890  0.61081327
   0.58333000  0.33333000  0.39081000
   0.58333000  0.08333000  0.39081000
   0.83333000  0.33333000  0.39081000
   0.83333000  0.08333000  0.39081000
   0.91667000  0.16667000  0.46360000
   0.91667000  0.41667000  0.46360000
   0.66667000  0.16667000  0.46360000
   0.66667000  0.41667000  0.46360000
   0.75040914 -0.00082031  0.53463221
   0.74716178  0.25120227  0.53543952
   0.00030308  0.00002812  0.53436308
   0.00047304  0.24966085  0.53424077
   0.57828067  0.33915887  0.62016144
   0.58401881  0.07966112  0.60965420
   0.83683133  0.33342979  0.60983976
   0.83624481  0.08000109  0.60984553
   0.58333000  0.83333000  0.39081000
   0.58333000  0.58333000  0.39081000
   0.83333000  0.83333000  0.39081000
   0.83333000  0.58333000  0.39081000
   0.91667000  0.66667000  0.46360000
   0.91667000  0.91667000  0.46360000
   0.66667000  0.66667000  0.46360000
   0.66667000  0.91667000  0.46360000
   0.75016765  0.50003125  0.53470409
   0.74998987  0.75016699  0.53461517
   0.00003166  0.49985862  0.53454048
  -0.00029923  0.75034225  0.53457303
   0.58367182  0.83319831  0.61000409
   0.58523040  0.58813255  0.60935649
   0.83317895  0.83338195  0.60999168
   0.83322151  0.58342688  0.60992194
   0.50499046  0.41723013  0.71882905
   0.51766617  0.40394615  0.68190119
Direct configuration=     8
   0.08333000  0.33333000  0.39081000
   0.08333000  0.08333000  0.39081000
   0.33333000  0.33333000  0.39081000
   0.33333000  0.08333000  0.39081000
   0.41667000  0.16667000  0.46360000
   0.41667000  0.41667000  0.46360000
   0.16667000  0.16667000  0.46360000
   0.16667000  0.41667000  0.46360000
   0.25005451  0.00007978  0.53435366
   0.24993715  0.24949041  0.53410571
   0.49970764  0.00020946  0.53434973
   0.50078168  0.25044185  0.53447268
   0.08327094  0.33342118  0.61000956
   0.08313116  0.08345908  0.60993881
   0.32822114  0.33286972  0.60946345
   0.33346104  0.08338790  0.60997059
   0.08333000  0.83333000  0.39081000
   0.08333000  0.58333000  0.39081000
   0.33333000  0.83333000  0.39081000
   0.33333000  0.58333000  0.39081000
   0.41667000  0.66667000  0.46360000
   0.41667000  0.91667000  0.46360000
   0.16667000  0.66667000  0.46360000
   0.16667000  0.91667000  0.46360000
   0.24983037  0.50000617  0.53462278
   0.25048487  0.74980874  0.53445330
   0.50008791  0.50027905  0.53310470
   0.49946898  0.75004605  0.53438529
   0.08280086  0.83356705  0.60997750
   0.08290567  0.58347828  0.60976929
   0.33322249  0.83378125  0.60992706
   0.32824508  0.58756945  0.61085335
   0.58333000  0.33333000  0.39081000
   0.58333000  0.08333000  0.39081000
   0.83333000  0.33333000  0.39081000
   0.83333000  0.08333000  0.39081000
   0.91667000  0.16667000  0.46360000
   0.91667000  0.41667000  0.46360000
   0.66667000  0.16667000  0.46360000
   0.66667000  0.41667000  0.46360000
   0.75041589 -0.00083075  0.53459772
   0.74703825  0.25125996  0.53545905
   0.00029922  0.00003915  0.53431921
   0.00046684  0.24965460  0.53419438
   0.57799961  0.33948060  0.62066910
   0.58403933  0.07955060  0.60964962
   0.83695489  0.33341679  0.60984274
   0.83632166  0.07991564  0.60984809
   0.58333000  0.83333000  0.39081000
   0.58333000  0.58333000  0.39081000
   0.83333000  0.83333000  0.39081000
   0.83333000  0.58333000  0.39081000
   0.91667000  0.66667000  0.46360000
   0.91667000  0.91667000  0.46360000
   0.66667000  0.66667000  0.46360000
   0.66667000  0.91667000  0.46360000
   0.75017576  0.50002548  0.53467074
   0.74998518  0.75017071  0.53457968
   0.00003376  0.49985079  0.53450281
  -0.00029902  0.75034853  0.53453647
   0.58367834  0.83320137  0.61001715
   0.58528071  0.58830573  0.60934400
   0.83317719  0.83337814  0.61000464
   0.83323277  0.58343587  0.60993272
   0.50493579  0.41728745  0.71857359
   0.51825727  0.40331732  0.68168584
Direct configuration=     9
   0.08333000  0.33333000  0.39081000
   0.08333000  0.08333000  0.39081000
   0.33333000  0.33333000  0.39081000
   0.33333000  0.08333000  0.39081000
   0.41667000  0.16667000  0.46360000
   0.41667000  0.41667000  0.46360000
   0.16667000  0.16667000  0.46360000
   0.16667000  0.41667000  0.46360000
   0.25006272  0.00007667  0.53423483
   0.24995286  0.24946196  0.53395571
   0.49969204  0.00022884  0.53422117
   0.50088510  0.25053701  0.53443171
   0.08326484  0.33341683  0.61004585
   0.08310468  0.08347529  0.60996427
   0.32771548  0.33279003  0.60943374
   0.33346946  0.08338154  0.61000064
   0.08333000  0.83333000  0.39081000
   0.08333000  0.58333000  0.39081000
   0.33333000  0.83333000  0.39081000
   0.33333000  0.58333000  0.39081000
   0.41667000  0.66667000  0.46360000
   0.41667000  0.91667000  0.46360000
   0.16667000  0.66667000  0.46360000
   0.16667000  0.91667000  0.46360000
   0.24983627  0.50001187  0.53452954
   0.25051793  0.74976468  0.53434538
   0.50011450  0.50021404  0.53294328
   0.49943901  0.75006462  0.53425594
   0.08278819  0.83356590  0.61001193
   0.08280340  0.58352586  0.60978185
   0.33318881  0.83385391  0.60995153
   0.32769815  0.58808109  0.61097357
   0.58333000  0.33333000  0.39081000
   0.58333000  0.08333000  0.39081000
   0.83333000  0.33333000  0.39081000
   0.83333000  0.08333000  0.39081000
   0.91667000  0.16667000  0.46360000
   0.91667000  0.41667000  0.46360000
   0.66667000  0.16667000  0.46360000
   0.66667000  0.41667000  0.46360000
   0.75043613 -0.00086205  0.53449426
   0.74666766  0.25143303  0.53551761
   0.00028764  0.00007225  0.53418760
   0.00044824  0.24963586  0.53405522
   0.57715642  0.34044576  0.62219210
   0.58410090  0.07921904  0.60963587
   0.83732556  0.33337781  0.60985170
   0.83655219  0.07965929  0.60985578
   0.58333000  0.83333000  0.39081000
   0.58333000  0.58333000  0.39081000
   0.83333000  0.83333000  0.39081000
   0.83333000  0.58333000  0.39081000
   0.91667000  0.66667000  0.46360000
   0.91667000  0.91667000  0.46360000
   0.66667000  0.66667000  0.46360000
   0.66667000  0.91667000  0.46360000
   0.75020010  0.50000818  0.53457068
   0.74997110  0.75018186  0.53447319
   0.00004007  0.49982733  0.53438980
  -0.00029839  0.75036736  0.53442678
   0.58369789  0.83321053  0.61005632
   0.58543164  0.58882527  0.60930654
   0.83317189  0.83336671  0.61004352
   0.83326654  0.58346285  0.60996507
   0.50477179  0.41745942  0.71780721
   0.52003058  0.40143082  0.68103981
Direct configuration=    10
   0.08333000  0.33333000  0.39081000
   0.08333000  0.08333000  0.39081000
   0.33333000  0.33333000  0.39081000
   0.33333000  0.08333000  0.39081000
   0.41667000  0.16667000  0.46360000
   0.41667000  0.41667000  0.46360000
   0.16667000  0.16667000  0.46360000
   0.16667000  0.41667000  0.46360000
   0.25007913  0.00007044  0.53399719
   0.24998429  0.24940507  0.53365571
   0.49966084  0.00026759  0.53396406
   0.50109194  0.25072733  0.53434977
   0.08325263  0.33340812  0.61011844
   0.08305171  0.08350771  0.61001521
   0.32670416  0.33263066  0.60937431
   0.33348629  0.08336881  0.61006074
   0.08333000  0.83333000  0.39081000
   0.08333000  0.58333000  0.39081000
   0.33333000  0.83333000  0.39081000
   0.33333000  0.58333000  0.39081000
   0.41667000  0.66667000  0.46360000
   0.41667000  0.91667000  0.46360000
   0.16667000  0.66667000  0.46360000
   0.16667000  0.91667000  0.46360000
   0.24984806  0.50002328  0.53434305
   0.25058405  0.74967657  0.53412954
   0.50016768  0.50008404  0.53262044
   0.49937905  0.75010177  0.53399725
   0.08276285  0.83356360  0.61008079
   0.08259886  0.58362101  0.60980698
   0.33312146  0.83399923  0.61000048
   0.32660428  0.58910437  0.61121402
   0.58333000  0.33333000  0.39081000
   0.58333000  0.08333000  0.39081000
   0.83333000  0.33333000  0.39081000
   0.83333000  0.08333000  0.39081000
   0.91667000  0.16667000  0.46360000
   0.91667000  0.41667000  0.46360000
   0.66667000  0.16667000  0.46360000
   0.66667000  0.41667000  0.46360000
   0.75047661 -0.00092467  0.53428733
   0.74592649  0.25177917  0.53563474
   0.00026448  0.00013845  0.53392437
   0.00041102  0.24959838  0.53377689
   0.57547005  0.34237610  0.62523809
   0.58422404  0.07855591  0.60960838
   0.83806689  0.33329984  0.60986961
   0.83701326  0.07914660  0.60987114
   0.58333000  0.83333000  0.39081000
   0.58333000  0.58333000  0.39081000
   0.83333000  0.83333000  0.39081000
   0.83333000  0.58333000  0.39081000
   0.91667000  0.66667000  0.46360000
   0.91667000  0.91667000  0.46360000
   0.66667000  0.66667000  0.46360000
   0.66667000  0.91667000  0.46360000
   0.75024879  0.49997358  0.53437056
   0.74994294  0.75020416  0.53426021
   0.00005268  0.49978040  0.53416378
  -0.00029714  0.75040503  0.53420741
   0.58373700  0.83322884  0.61013466
   0.58573349  0.58986435  0.60923161
   0.83316130  0.83334387  0.61012129
   0.83333407  0.58351682  0.61002977
   0.50444380  0.41780336  0.71627444
   0.52357719  0.39765781  0.67974775
Direct configuration=    11
   0.08333000  0.33333000  0.39081000
   0.08333000  0.08333000  0.39081000
   0.33333000  0.33333000  0.39081000
   0.33333000  0.08333000  0.39081000
   0.41667000  0.16667000  0.46360000
   0.41667000  0.41667000  0.46360000
   0.16667000  0.16667000  0.46360000
   0.16667000  0.41667000  0.46360000
   0.25006842  0.00007451  0.53415234
   0.24996377  0.24944221  0.53385157
   0.49968121  0.00024229  0.53413192
   0.50095690  0.25060308  0.53440326
   0.08326060  0.33341380  0.61007105
   0.08308629  0.08348655  0.60998195
   0.32736441  0.33273471  0.60941311
   0.33347530  0.08337712  0.61002150
   0.08333000  0.83333000  0.39081000
   0.08333000  0.58333000  0.39081000
   0.33333000  0.83333000  0.39081000
   0.33333000  0.58333000  0.39081000
   0.41667000  0.66667000  0.46360000
   0.41667000  0.91667000  0.46360000
   0.16667000  0.66667000  0.46360000
   0.16667000  0.91667000  0.46360000
   0.24984036  0.50001583  0.53446480
   0.25054088  0.74973409  0.53427045
   0.50013296  0.50016892  0.53283121
   0.49941819  0.75007752  0.53416614
   0.08277939  0.83356510  0.61003583
   0.08273240  0.58355889  0.60979057
   0.33316543  0.83390436  0.60996853
   0.32731842  0.58843631  0.61105704
   0.58333000  0.33333000  0.39081000
   0.58333000  0.08333000  0.39081000
   0.83333000  0.33333000  0.39081000
   0.83333000  0.08333000  0.39081000
   0.91667000  0.16667000  0.46360000
   0.91667000  0.41667000  0.46360000
   0.66667000  0.16667000  0.46360000
   0.66667000  0.41667000  0.46360000
   0.75045018 -0.00088379  0.53442243
   0.74641037  0.25155319  0.53555827
   0.00027960  0.00009523  0.53409622
   0.00043532  0.24962285  0.53395860
   0.57657102  0.34111586  0.62324948
   0.58414365  0.07898884  0.60962633
   0.83758290  0.33335074  0.60985791
   0.83671224  0.07948132  0.60986111
   0.58333000  0.83333000  0.39081000
   0.58333000  0.58333000  0.39081000
   0.83333000  0.83333000  0.39081000
   0.83333000  0.58333000  0.39081000
   0.91667000  0.66667000  0.46360000
   0.91667000  0.91667000  0.46360000
   0.66667000  0.66667000  0.46360000
   0.66667000  0.91667000  0.46360000
   0.75021700  0.49999617  0.53450121
   0.74996132  0.75018960  0.53439925
   0.00004444  0.49981104  0.53431134
  -0.00029796  0.75038044  0.53435063
   0.58371147  0.83321688  0.61008351
   0.58553642  0.58918597  0.60928053
   0.83316821  0.83335878  0.61007052
   0.83328998  0.58348159  0.60998753
   0.50465793  0.41757881  0.71727513
   0.52126174  0.40012106  0.68059129
Direct configuration=    12
   0.08333000  0.33333000  0.39081000
   0.08333000  0.08333000  0.39081000
   0.33333000  0.33333000  0.39081000
   0.33333000  0.08333000  0.39081000
   0.41667000  0.16667000  0.46360000
   0.41667000  0.41667000  0.46360000
   0.16667000  0.16667000  0.46360000
   0.16667000  0.41667000  0.46360000
   0.25007087  0.00007358  0.53411684
   0.24996846  0.24943371  0.53380676
   0.49967655  0.00024808  0.53409352
   0.50098780  0.25063150  0.53439102
   0.08325878  0.33341250  0.61008189
   0.08307838  0.08349139  0.60998956
   0.32721336  0.33271091  0.60940423
   0.33347782  0.08337522  0.61003048
   0.08333000  0.83333000  0.39081000
   0.08333000  0.58333000  0.39081000
   0.33333000  0.83333000  0.39081000
   0.33333000  0.58333000  0.39081000
   0.41667000  0.66667000  0.46360000
   0.41667000  0.91667000  0.46360000
   0.16667000  0.66667000  0.46360000
   0.16667000  0.91667000  0.46360000
   0.24984212  0.50001754  0.53443695
   0.25055076  0.74972093  0.53423821
   0.50014091  0.50014950  0.53278299
   0.49940924  0.75008307  0.53412750
   0.08277561  0.83356476  0.61004612
   0.08270185  0.58357310  0.60979433
   0.33315537  0.83392606  0.60997584
   0.32715504  0.58858915  0.61109295
   0.58333000  0.33333000  0.39081000
   0.58333000  0.08333000  0.39081000
   0.83333000  0.33333000  0.39081000
   0.83333000  0.08333000  0.39081000
   0.91667000  0.16667000  0.46360000
   0.91667000  0.41667000  0.46360000
   0.66667000  0.16667000  0.46360000
   0.66667000  0.41667000  0.46360000
   0.75045623 -0.00089314  0.53439152
   0.74629967  0.25160489  0.53557576
   0.00027614  0.00010512  0.53405690
   0.00042976  0.24961725  0.53391702
   0.57631914  0.34140418  0.62370444
   0.58416204  0.07888979  0.60962222
   0.83769363  0.33333910  0.60986059
   0.83678111  0.07940474  0.60986340
   0.58333000  0.83333000  0.39081000