  65  65   0   0
  0.5269013E+02  0.1121440E-08  0.1121440E-08  0.3144560E-08  0.5000000E-15
  1.000000000000000E-004
  CAR 
 Pt                                      
      5.14158093    -11.25036214  301     -0.95953382      1.00000000
    -11.250  0.0000E+00  0.0000E+00
    -11.196  0.0000E+00  0.0000E+00
    -11.141  0.0000E+00  0.0000E+00
    -11.086 -0.1182E-31 -0.6457E-33
    -11.032 -0.7611E-28 -0.4159E-29
    -10.977 -0.2685E-24 -0.1467E-25
    -10.923 -0.5183E-21 -0.2833E-22
    -10.868 -0.5469E-18 -0.2991E-19
    -10.813 -0.3056E-15 -0.1673E-16
    -10.759 -0.9514E-13 -0.5215E-14
    -10.704 -0.1607E-10 -0.8831E-12
    -10.649 -0.1462E-08 -0.8076E-10
    -10.595 -0.7099E-07 -0.3960E-08
    -10.540 -0.1809E-05 -0.1028E-06
    -10.485 -0.2337E-04 -0.1380E-05
    -10.431 -0.1410E-03 -0.9082E-05
    -10.376 -0.2900E-03 -0.2493E-04
    -10.321  0.3972E-03 -0.3226E-05
    -10.267  0.2303E-02  0.1226E-03
    -10.212  0.5558E-02  0.4263E-03
    -10.158  0.1659E-01  0.1333E-02
    -10.103  0.2970E-01  0.2955E-02
    -10.048  0.2228E-01  0.4173E-02
     -9.994  0.3834E-02  0.4382E-02
     -9.939  0.8312E-03  0.4428E-02
     -9.884  0.1648E-01  0.5328E-02
     -9.830  0.3052E-01  0.6996E-02
     -9.775  0.3173E-01  0.8730E-02
     -9.720  0.3176E-01  0.1047E-01
     -9.666  0.2258E-01  0.1170E-01
     -9.611  0.5542E-02  0.1200E-01
     -9.557 -0.2637E-02  0.1186E-01
     -9.502 -0.4020E-02  0.1164E-01
     -9.447  0.5225E-02  0.1192E-01
     -9.393  0.3764E-01  0.1398E-01
     -9.338  0.6029E-01  0.1727E-01
     -9.283  0.3566E-01  0.1922E-01
     -9.229  0.7020E-02  0.1961E-01
     -9.174  0.1425E-01  0.2038E-01
     -9.119  0.2901E-01  0.2197E-01
     -9.065  0.1960E-01  0.2304E-01
     -9.010  0.3323E-02  0.2322E-01
     -8.955 -0.8965E-03  0.2317E-01
     -8.901  0.3566E-02  0.2337E-01
     -8.846  0.2611E-01  0.2480E-01
     -8.792  0.6557E-01  0.2838E-01
     -8.737  0.8706E-01  0.3313E-01
     -8.682  0.7103E-01  0.3702E-01
     -8.628  0.3437E-01  0.3889E-01
     -8.573  0.2083E-01  0.4003E-01
     -8.518  0.3722E-01  0.4207E-01
     -8.464  0.5846E-01  0.4526E-01
     -8.409  0.5919E-01  0.4849E-01
     -8.354  0.2855E-01  0.5005E-01
     -8.300 -0.4861E-03  0.5003E-01
     -8.245 -0.8892E-02  0.4954E-01
     -8.191  0.1076E-01  0.5013E-01
     -8.136  0.7868E-01  0.5443E-01
     -8.081  0.1476E+00  0.6249E-01
     -8.027  0.1304E+00  0.6962E-01
     -7.972  0.6053E-01  0.7292E-01
     -7.917  0.3953E-01  0.7508E-01
     -7.863  0.5356E-01  0.7801E-01
     -7.808  0.3704E-01  0.8003E-01
     -7.753  0.1088E-01  0.8063E-01
     -7.699  0.2061E-01  0.8175E-01
     -7.644  0.8583E-01  0.8644E-01
     -7.589  0.1933E+00  0.9701E-01
     -7.535  0.2593E+00  0.1112E+00
     -7.480  0.2536E+00  0.1250E+00
     -7.426  0.2413E+00  0.1382E+00
     -7.371  0.2089E+00  0.1496E+00
     -7.316  0.1504E+00  0.1579E+00
     -7.262  0.1696E+00  0.1671E+00
     -7.207  0.2874E+00  0.1828E+00
     -7.152  0.3742E+00  0.2033E+00
     -7.098  0.3111E+00  0.2203E+00
     -7.043  0.2051E+00  0.2315E+00
     -6.988  0.2182E+00  0.2434E+00
     -6.934  0.2773E+00  0.2585E+00
     -6.879  0.3039E+00  0.2752E+00
     -6.825  0.3303E+00  0.2932E+00
     -6.770  0.3312E+00  0.3113E+00
     -6.715  0.3356E+00  0.3296E+00
     -6.661  0.4078E+00  0.3519E+00
     -6.606  0.4953E+00  0.3790E+00
     -6.551  0.5182E+00  0.4073E+00
     -6.497  0.5150E+00  0.4354E+00
     -6.442  0.4857E+00  0.4620E+00
     -6.387  0.4310E+00  0.4855E+00
     -6.333  0.4501E+00  0.5101E+00
     -6.278  0.5168E+00  0.5384E+00
     -6.223  0.4886E+00  0.5650E+00
     -6.169  0.3972E+00  0.5868E+00
     -6.114  0.3575E+00  0.6063E+00
     -6.060  0.3394E+00  0.6248E+00
     -6.005  0.3322E+00  0.6430E+00
     -5.950  0.3353E+00  0.6613E+00
     -5.896  0.2889E+00  0.6771E+00
     -5.841  0.1940E+00  0.6877E+00
     -5.786  0.1640E+00  0.6967E+00
     -5.732  0.2781E+00  0.7118E+00
     -5.677  0.4427E+00  0.7360E+00
     -5.622  0.5186E+00  0.7644E+00
     -5.568  0.4858E+00  0.7909E+00
     -5.513  0.4164E+00  0.8137E+00
     -5.459  0.3711E+00  0.8339E+00
     -5.404  0.3662E+00  0.8540E+00
     -5.349  0.3917E+00  0.8754E+00
     -5.295  0.4206E+00  0.8983E+00
     -5.240  0.4544E+00  0.9232E+00
     -5.185  0.4764E+00  0.9492E+00
     -5.131  0.4449E+00  0.9735E+00
     -5.076  0.3933E+00  0.9950E+00
     -5.021  0.3863E+00  0.1016E+01
     -4.967  0.3746E+00  0.1037E+01
     -4.912  0.3068E+00  0.1053E+01
     -4.858  0.2764E+00  0.1068E+01
     -4.803  0.3664E+00  0.1088E+01
     -4.748  0.4655E+00  0.1114E+01
     -4.694  0.4727E+00  0.1140E+01
     -4.639  0.4714E+00  0.1165E+01
     -4.584  0.5421E+00  0.1195E+01
     -4.530  0.6295E+00  0.1229E+01
     -4.475  0.6790E+00  0.1267E+01
     -4.420  0.6786E+00  0.1304E+01
     -4.366  0.6003E+00  0.1336E+01
     -4.311  0.4751E+00  0.1362E+01
     -4.256  0.4505E+00  0.1387E+01
     -4.202  0.6007E+00  0.1420E+01
     -4.147  0.7731E+00  0.1462E+01
     -4.093  0.7854E+00  0.1505E+01
     -4.038  0.7349E+00  0.1545E+01
     -3.983  0.7621E+00  0.1587E+01
     -3.929  0.7545E+00  0.1628E+01
     -3.874  0.7107E+00  0.1667E+01
     -3.819  0.7212E+00  0.1706E+01
     -3.765  0.7338E+00  0.1746E+01
     -3.710  0.7354E+00  0.1787E+01
     -3.655  0.7385E+00  0.1827E+01
     -3.601  0.6420E+00  0.1862E+01
     -3.546  0.4655E+00  0.1887E+01
     -3.492  0.3825E+00  0.1908E+01
     -3.437  0.3841E+00  0.1929E+01
     -3.382  0.3735E+00  0.1950E+01
     -3.328  0.3769E+00  0.1970E+01
     -3.273  0.3912E+00  0.1992E+01
     -3.218  0.3502E+00  0.2011E+01
     -3.164  0.2894E+00  0.2027E+01
     -3.109  0.3610E+00  0.2046E+01
     -3.054  0.5800E+00  0.2078E+01
     -3.000  0.7659E+00  0.2120E+01
     -2.945  0.7939E+00  0.2163E+01
     -2.890  0.6668E+00  0.2200E+01
     -2.836  0.4940E+00  0.2227E+01
     -2.781  0.4053E+00  0.2249E+01
     -2.727  0.3798E+00  0.2270E+01
     -2.672  0.3771E+00  0.2290E+01
     -2.617  0.3857E+00  0.2311E+01
     -2.563  0.3908E+00  0.2333E+01
     -2.508  0.4244E+00  0.2356E+01
     -2.453  0.4473E+00  0.2380E+01
     -2.399  0.4060E+00  0.2402E+01
     -2.344  0.4079E+00  0.2425E+01
     -2.289  0.5028E+00  0.2452E+01
     -2.235  0.5361E+00  0.2482E+01
     -2.180  0.4970E+00  0.2509E+01
     -2.126  0.5841E+00  0.2541E+01
     -2.071  0.7414E+00  0.2581E+01
     -2.016  0.7458E+00  0.2622E+01
     -1.962  0.6756E+00  0.2659E+01
     -1.907  0.6048E+00  0.2692E+01
     -1.852  0.5450E+00  0.2722E+01
     -1.798  0.5202E+00  0.2750E+01
     -1.743  0.3787E+00  0.2771E+01
     -1.688  0.2215E+00  0.2783E+01
     -1.634  0.2860E+00  0.2798E+01
     -1.579  0.4782E+00  0.2825E+01
     -1.524  0.5796E+00  0.2856E+01
     -1.470  0.5824E+00  0.2888E+01
     -1.415  0.6029E+00  0.2921E+01
     -1.361  0.5626E+00  0.2952E+01
     -1.306  0.4349E+00  0.2975E+01
     -1.251  0.4235E+00  0.2999E+01
     -1.197  0.5375E+00  0.3028E+01
     -1.142  0.6110E+00  0.3061E+01
     -1.087  0.6882E+00  0.3099E+01
     -1.033  0.8160E+00  0.3144E+01
     -0.978  0.8510E+00  0.3190E+01
     -0.923  0.7656E+00  0.3232E+01
     -0.869  0.6267E+00  0.3266E+01
     -0.814  0.5233E+00  0.3295E+01
     -0.760  0.5228E+00  0.3323E+01
     -0.705  0.5165E+00  0.3352E+01
     -0.650  0.4419E+00  0.3376E+01
     -0.596  0.3097E+00  0.3393E+01
     -0.541  0.1415E+00  0.3400E+01
     -0.486  0.4394E-01  0.3403E+01
     -0.432  0.6090E-01  0.3406E+01
     -0.377  0.1191E+00  0.3413E+01
     -0.322  0.1429E+00  0.3420E+01
     -0.268  0.1227E+00  0.3427E+01
     -0.213  0.9806E-01  0.3432E+01
     -0.158  0.8772E-01  0.3437E+01
     -0.104  0.8047E-01  0.3442E+01
     -0.049  0.9238E-01  0.3447E+01
      0.005  0.1345E+00  0.3454E+01
      0.060  0.1416E+00  0.3462E+01
      0.115  0.1124E+00  0.3468E+01
      0.169  0.1199E+00  0.3474E+01
      0.224  0.1695E+00  0.3484E+01
      0.279  0.2039E+00  0.3495E+01
      0.333  0.1667E+00  0.3504E+01
      0.388  0.1044E+00  0.3510E+01
      0.443  0.9003E-01  0.3515E+01
      0.497  0.8858E-01  0.3519E+01
      0.552  0.5915E-01  0.3523E+01
      0.606  0.3403E-01  0.3525E+01
      0.661  0.2790E-01  0.3526E+01
      0.716  0.1857E-01  0.3527E+01
      0.770  0.2038E-01  0.3528E+01
      0.825  0.5255E-01  0.3531E+01
      0.880  0.8381E-01  0.3536E+01
      0.934  0.1128E+00  0.3542E+01
      0.989  0.1406E+00  0.3549E+01
      1.044  0.1339E+00  0.3557E+01
      1.098  0.1150E+00  0.3563E+01
      1.153  0.1131E+00  0.3569E+01
      1.208  0.1145E+00  0.3575E+01
      1.262  0.1330E+00  0.3583E+01
      1.317  0.1783E+00  0.3593E+01
      1.371  0.1737E+00  0.3602E+01
      1.426  0.1233E+00  0.3609E+01
      1.481  0.1136E+00  0.3615E+01
      1.535  0.1184E+00  0.3621E+01
      1.590  0.1031E+00  0.3627E+01
      1.645  0.8177E-01  0.3632E+01
      1.699  0.6236E-01  0.3635E+01
      1.754  0.6602E-01  0.3639E+01
      1.809  0.9385E-01  0.3644E+01
      1.863  0.9079E-01  0.3649E+01
      1.918  0.4436E-01  0.3651E+01
      1.972  0.4174E-01  0.3653E+01
      2.027  0.1207E+00  0.3660E+01
      2.082  0.1796E+00  0.3670E+01
      2.136  0.1213E+00  0.3676E+01
      2.191  0.2828E-01  0.3678E+01
      2.246  0.2033E-01  0.3679E+01
      2.300  0.8598E-01  0.3684E+01
      2.355  0.1483E+00  0.3692E+01
      2.410  0.1502E+00  0.3700E+01
      2.464  0.1119E+00  0.3706E+01
      2.519  0.7982E-01  0.3711E+01
      2.574  0.7423E-01  0.3715E+01
      2.628  0.8176E-01  0.3719E+01
      2.683  0.8916E-01  0.3724E+01
      2.737  0.1133E+00  0.3730E+01
      2.792  0.1238E+00  0.3737E+01
      2.847  0.1091E+00  0.3743E+01
      2.901  0.1168E+00  0.3749E+01
      2.956  0.1299E+00  0.3756E+01
      3.011  0.1155E+00  0.3763E+01
      3.065  0.7906E-01  0.3767E+01
      3.120  0.4893E-01  0.3770E+01
      3.175  0.5436E-01  0.3773E+01
      3.229  0.7402E-01  0.3777E+01
      3.284  0.1203E+00  0.3783E+01
      3.338  0.1962E+00  0.3794E+01
      3.393  0.1837E+00  0.3804E+01
      3.448  0.8227E-01  0.3808E+01
      3.502  0.4228E-01  0.3811E+01
      3.557  0.4958E-01  0.3813E+01
      3.612  0.2516E-01  0.3815E+01
      3.666  0.8429E-02  0.3815E+01
      3.721  0.4046E-01  0.3818E+01
      3.776  0.7941E-01  0.3822E+01
      3.830  0.6641E-01  0.3825E+01
      3.885  0.3133E-01  0.3827E+01
      3.940  0.4198E-01  0.3829E+01
      3.994  0.6817E-01  0.3833E+01
      4.049  0.4986E-01  0.3836E+01
      4.103  0.2524E-01  0.3837E+01
      4.158  0.2673E-01  0.3839E+01
      4.213  0.2052E-01  0.3840E+01
      4.267  0.4561E-02  0.3840E+01
      4.322 -0.1472E-02  0.3840E+01
      4.377 -0.8278E-03  0.3840E+01
      4.431 -0.1392E-03  0.3840E+01
      4.486 -0.1078E-04  0.3840E+01
      4.541 -0.4229E-06  0.3840E+01
      4.595 -0.8699E-08  0.3840E+01
      4.650 -0.9549E-10  0.3840E+01
      4.704 -0.5648E-12  0.3840E+01
      4.759 -0.1813E-14  0.3840E+01
      4.814  0.0000E+00  0.3840E+01
      4.868  0.0000E+00  0.3840E+01
      4.923  0.0000E+00  0.3840E+01
      4.978  0.0000E+00  0.3840E+01
      5.032  0.0000E+00  0.3840E+01
      5.087  0.0000E+00  0.3840E+01
      5.142  0.0000E+00  0.3840E+01
