   65   65  200    1
  0.5269013E+02  0.1121440E-08  0.1121440E-08  0.3144560E-08  0.5000000E-15
  1.000000000000000E-004
  CAR 
 Pt                                      
    641     10    384
 
  0.0000000E+00  0.0000000E+00  0.0000000E+00  0.6250000E-01
    1      -10.250362   1.000000
    2       -8.937119   1.000000
    3       -8.464658   1.000000
    4       -8.463607   1.000000
    5       -8.463302   1.000000
    6       -8.462325   1.000000
    7       -8.450037   1.000000
    8       -8.449739   1.000000
    9       -7.817299   1.000000
   10       -7.736243   1.000000
   11       -7.518482   1.000000
   12       -7.497999   1.000000
   13       -7.497603   1.000000
   14       -7.456000   1.000000
   15       -7.400936   1.000000
   16       -7.400814   1.000000
   17       -7.398636   1.000000
   18       -7.398560   1.000000
   19       -7.397708   1.000000
   20       -7.337223   1.000000
   21       -7.329428   1.000000
   22       -7.329343   1.000000
   23       -6.915030   1.000000
   24       -6.892613   1.000000
   25       -6.892561   1.000000
   26       -6.657703   1.000000
   27       -6.631380   1.000000
   28       -6.628615   1.000000
   29       -6.628499   1.000000
   30       -6.628241   1.000000
   31       -6.627893   1.000000
   32       -6.624142   1.000000
   33       -6.623748   1.000000
   34       -6.623319   1.000000
   35       -6.621872   1.000000
   36       -6.616715   1.000000
   37       -6.616271   1.000000
   38       -6.615844   1.000000
   39       -6.606946   1.000000
   40       -6.606663   1.000000
   41       -6.578354   1.000000
   42       -6.543150   1.000000
   43       -6.543124   1.000000
   44       -6.531113   1.000000
   45       -6.489201   1.000000
   46       -6.475351   1.000000
   47       -6.474701   1.000000
   48       -6.468472   1.000000
   49       -6.468261   1.000000
   50       -6.339749   1.000000
   51       -6.283378   1.000000
   52       -6.282730   1.000000
   53       -6.281013   1.000000
   54       -6.280577   1.000000
   55       -6.274375   1.000000
   56       -6.212611   1.000000
   57       -6.159349   1.000000
   58       -6.158980   1.000000
   59       -6.155003   1.000000
   60       -6.154308   1.000000
   61       -6.150127   1.000000
   62       -6.014768   1.000000
   63       -5.811413   1.000000
   64       -5.808849   1.000000
   65       -5.808511   1.000000
   66       -5.805275   1.000000
   67       -5.804841   1.000000
   68       -5.791231   1.000000
   69       -5.745485   1.000000
   70       -5.745346   1.000000
   71       -5.735788   1.000000
   72       -5.675761   1.000000
   73       -5.675702   1.000000
   74       -5.671342   1.000000
   75       -5.671251   1.000000
   76       -5.669979   1.000000
   77       -5.633429   1.000000
   78       -5.632159   1.000000
   79       -5.628461   1.000000
   80       -5.628225   1.000000
   81       -5.614145   1.000000
   82       -5.613694   1.000000
   83       -5.477399   1.000000
   84       -5.259139   1.000000
   85       -5.257887   1.000000
   86       -5.257665   1.000000
   87       -5.252907   1.000000
   88       -5.252756   1.000000
   89       -5.215443   1.000000
   90       -5.194599   1.000000
   91       -5.194348   1.000000
   92       -5.186480   1.000000
   93       -5.181598   1.000000
   94       -5.181382   1.000000
   95       -5.178757   1.000000
   96       -5.178010   1.000000
   97       -5.168398   1.000000
   98       -5.168207   1.000000
   99       -5.165098   1.000000
  100       -5.164902   1.000000
  101       -5.138674   1.000000
  102       -5.046705   1.000000
  103       -5.046648   1.000000
  104       -5.034884   1.000000
  105       -5.034462   1.000000
  106       -5.033269   1.000000
  107       -4.920756   1.000000
  108       -4.783251   1.000000
  109       -4.782974   1.000000
  110       -4.775368   1.000000
  111       -4.768790   1.000000
  112       -4.768500   1.000000
  113       -4.762051   1.000000
  114       -4.751381   1.000000
  115       -4.750745   1.000000
  116       -4.732433   1.000000
  117       -4.629179   1.000000
  118       -4.628474   1.000000
  119       -4.619893   1.000000
  120       -4.615824   1.000000
  121       -4.610718   1.000000
  122       -4.610405   1.000000
  123       -4.603014   1.000000
  124       -4.602660   1.000000
  125       -4.577497   1.000000
  126       -4.551682   1.000000
  127       -4.449039   1.000000
  128       -4.439967   1.000000
  129       -4.439932   1.000000
  130       -4.431141   1.000000
  131       -4.430971   1.000000
  132       -4.428696   1.000000
  133       -4.427781   1.000000
  134       -4.427632   1.000000
  135       -4.363300   1.000000
  136       -4.337968   1.000000
  137       -4.337785   1.000000
  138       -4.244384   1.000000
  139       -4.243650   1.000000
  140       -4.238320   1.000000
  141       -4.237423   1.000000
  142       -4.232436   1.000000
  143       -4.185691   1.000000
  144       -4.181446   1.000000
  145       -4.180958   1.000000
  146       -4.163996   1.000000
  147       -4.022480   1.000000
  148       -4.011107   1.000000
  149       -4.010719   1.000000
  150       -4.009621   1.000000
  151       -4.009275   1.000000
  152       -4.005515   1.000000
  153       -3.955213   1.000000
  154       -3.954540   1.000000
  155       -3.935126   1.000000
  156       -3.934919   1.000000
  157       -3.925780   1.000000
  158       -3.924629   1.000000
  159       -3.921406   1.000000
  160       -3.921140   1.000000
  161       -3.871727   1.000000
  162       -3.871231   1.000000
  163       -3.847198   1.000000
  164       -3.845408   1.000000
  165       -3.844720   1.000000
  166       -3.838352   1.000000
  167       -3.836933   1.000000
  168       -3.836757   1.000000
  169       -3.833807   1.000000
  170       -3.828400   1.000000
  171       -3.826743   1.000000
  172       -3.826438   1.000000
  173       -3.822060   1.000000
  174       -3.818452   1.000000
  175       -3.817876   1.000000
  176       -3.813297   1.000000
  177       -3.813219   1.000000
  178       -3.811138   1.000000
  179       -3.793724   1.000000
  180       -3.793614   1.000000
  181       -3.686855   1.000000
  182       -3.686485   1.000000
  183       -3.680430   1.000000
  184       -3.670098   1.000000
  185       -3.660425   1.000000
  186       -3.660262   1.000000
  187       -3.643803   1.000000
  188       -3.627567   1.000000
  189       -3.627362   1.000000
  190       -3.618239   1.000000
  191       -3.617165   1.000000
  192       -3.616813   1.000000
  193       -3.567420   1.000000
  194       -3.537846   1.000000
  195       -3.537281   1.000000
  196       -3.528230   1.000000
  197       -3.515763   1.000000
  198       -3.515338   1.000000
  199       -3.508456   1.000000
  200       -3.508033   1.000000
  201       -3.502573   1.000000
  202       -3.362861   1.000000
  203       -3.164681   1.000000
  204       -3.164304   1.000000
  205       -3.162762   1.000000
  206       -3.151378   1.000000
  207       -3.151121   1.000000
  208       -3.137360   1.000000
  209       -3.086447   1.000000
  210       -3.086096   1.000000
  211       -3.079483   1.000000
  212       -3.046622   1.000000
  213       -3.044316   1.000000
  214       -3.043756   1.000000
  215       -3.040623   1.000000
  216       -3.040523   1.000000
  217       -3.031395   1.000000
  218       -2.969535   1.000000
  219       -2.968429   1.000000
  220       -2.910805   1.000000
  221       -2.904991   1.000000
  222       -2.904607   1.000000
  223       -2.900301   1.000000
  224       -2.900168   1.000000
  225       -2.895385   1.000000
  226       -2.886657   1.000000
  227       -2.780717   1.000000
  228       -2.780130   1.000000
  229       -2.760407   1.000000
  230       -2.757902   1.000000
  231       -2.757713   1.000000
  232       -2.584673   1.000000
  233       -2.549868   1.000000
  234       -2.549582   1.000000
  235       -2.545292   1.000000
  236       -2.533323   1.000000
  237       -2.533108   1.000000
  238       -2.532221   1.000000
  239       -2.467729   1.000000
  240       -2.467282   1.000000
  241       -2.444567   1.000000
  242       -2.443202   1.000000
  243       -2.412341   1.000000
  244       -2.407409   1.000000
  245       -2.406520   1.000000
  246       -2.406390   1.000000
  247       -2.374134   1.000000
  248       -2.373722   1.000000
  249       -2.369182   1.000000
  250       -2.369002   1.000000
  251       -2.365456   1.000000
  252       -2.362436   1.000000
  253       -2.265157   1.000000
  254       -2.264924   1.000000
  255       -2.258611   1.000000
  256       -2.249418   1.000000
  257       -2.240580   1.000000
  258       -2.240186   1.000000
  259       -2.148308   1.000000
  260       -2.148062   1.000000
  261       -2.135311   1.000000
  262       -2.127741   1.000000
  263       -2.127056   1.000000
  264       -2.117807   1.000000
  265       -2.116876   1.000000
  266       -2.109760   1.000000
  267       -2.091573   1.000000
  268       -2.091383   1.000000
  269       -2.081935   1.000000
  270       -2.081621   1.000000
  271       -2.079019   1.000000
  272       -1.980215   1.000000
  273       -1.980053   1.000000
  274       -1.963370   1.000000
  275       -1.959172   1.000000
  276       -1.958942   1.000000
  277       -1.952756   1.000000
  278       -1.876425   1.000000
  279       -1.876219   1.000000
  280       -1.855903   1.000000
  281       -1.766023   1.000000
  282       -1.660493   1.000000
  283       -1.659321   1.000000
  284       -1.550145   1.000000
  285       -1.508159   1.000000
  286       -1.507992   1.000000
  287       -1.463960   1.000000
  288       -1.456158   1.000000
  289       -1.456057   1.000000
  290       -1.455668   1.000000
  291       -1.429769   1.000000
  292       -1.429432   1.000000
  293       -1.306292   1.000005
  294       -1.249517   1.000162
  295       -1.249466   1.000162
  296       -1.247031   1.000185
  297       -1.243267   1.000225
  298       -1.243133   1.000227
  299       -1.159399   1.008029
  300       -1.147888   1.011433
  301       -1.147066   1.011709
  302       -1.069756   1.032741
  303       -1.069732   1.032730
  304       -1.055286   1.020139
  305       -0.978649   0.658537
  306       -0.969375   0.582836
  307       -0.967884   0.570396
  308       -0.914323   0.157327
  309       -0.913913   0.154895
  310       -0.896560   0.067089
  311       -0.896365   0.066271
  312       -0.893826   0.056013
  313       -0.891048   0.045525
  314       -0.890855   0.044822
  315       -0.886547   0.030130
  316       -0.882576   0.018149
  317       -0.882117   0.016860
  318       -0.877908   0.005910
  319       -0.863696  -0.020251
  320       -0.861952  -0.022432
  321       -0.861562  -0.022892
  322       -0.809452  -0.027615
  323       -0.692794  -0.000531
  324       -0.692706  -0.000528
  325       -0.691977  -0.000510
  326       -0.655073  -0.000073
  327       -0.654652  -0.000071
  328       -0.649202  -0.000052
  329       -0.648259  -0.000049
  330       -0.647989  -0.000048
  331       -0.645262  -0.000041
  332       -0.644106  -0.000038
  333       -0.643404  -0.000037
  334       -0.643111  -0.000036
  335       -0.642457  -0.000035
  336       -0.642315  -0.000035
  337       -0.455388  -0.000000
  338       -0.455259  -0.000000
  339       -0.446209  -0.000000
  340       -0.419188  -0.000000
  341       -0.419108  -0.000000
  342       -0.412277  -0.000000
  343       -0.323305  -0.000000
  344       -0.004150  -0.000000
  345        0.029040  -0.000000
  346        0.030263  -0.000000
  347        0.829686  -0.000000
  348        1.013684  -0.000000
  349        1.014283  -0.000000
  350        1.014525  -0.000000
  351        1.017978  -0.000000
  352        1.018141  -0.000000
  353        1.020146  -0.000000
  354        1.398064  -0.000000
  355        1.398405  -0.000000
  356        1.437051  -0.000000
  357        1.437615  -0.000000
  358        1.441580  -0.000000
  359        1.446234  -0.000000
  360        1.447169  -0.000000
  361        1.447405  -0.000000
  362        1.527171  -0.000000
  363        1.527353  -0.000000
  364        1.528016  -0.000000
  365        1.532745  -0.000000
  366        1.532778  -0.000000
  367        1.533380  -0.000000
  368        1.733959  -0.000000
  369        1.755078  -0.000000
  370        1.756171  -0.000000
  371        2.056258   0.000000
  372        2.063419   0.000000
  373        2.064534   0.000000
  374        2.319123   0.000000
  375        2.664251   0.000000
  376        2.664664   0.000000
  377        2.678098   0.000000
  378        2.681771   0.000000
  379        2.682008   0.000000
  380        3.020647   0.000000
  381        3.745132   0.000000
  382        3.746423   0.000000
  383        3.759581   0.000000
  384        3.760082   0.000000
 
  0.2500000E+00  0.4280917E-16  0.0000000E+00  0.1250000E+00
    1      -10.117036   1.000000
    2       -9.142797   1.000000
    3       -8.806308   1.000000
    4       -8.715695   1.000000
    5       -8.712046   1.000000
    6       -8.051770   1.000000
    7       -8.045681   1.000000
    8       -7.907090   1.000000
    9       -7.874627   1.000000
   10       -7.682211   1.000000
   11       -7.611291   1.000000
   12       -7.568436   1.000000
   13       -7.543596   1.000000
   14       -7.505508   1.000000
   15       -7.411690   1.000000
   16       -7.405766   1.000000
   17       -7.289764   1.000000
   18       -7.236260   1.000000
   19       -7.230730   1.000000
   20       -7.188727   1.000000
   21       -7.161047   1.000000
   22       -7.154595   1.000000
   23       -6.982410   1.000000
   24       -6.977800   1.000000
   25       -6.867887   1.000000
   26       -6.849421   1.000000
   27       -6.830557   1.000000
   28       -6.827196   1.000000
   29       -6.806491   1.000000
   30       -6.802451   1.000000
   31       -6.732635   1.000000
   32       -6.692266   1.000000
   33       -6.664777   1.000000
   34       -6.646793   1.000000
   35       -6.638319   1.000000
   36       -6.632175   1.000000
   37       -6.622364   1.000000
   38       -6.597276   1.000000
   39       -6.596315   1.000000
   40       -6.540825   1.000000
   41       -6.531703   1.000000
   42       -6.526536   1.000000
   43       -6.521941   1.000000
   44       -6.503087   1.000000
   45       -6.497509   1.000000
   46       -6.478160   1.000000
   47       -6.448917   1.000000
   48       -6.425430   1.000000
   49       -6.418792   1.000000
   50       -6.414473   1.000000
   51       -6.385955   1.000000
   52       -6.382525   1.000000
   53       -6.348046   1.000000
   54       -6.268983   1.000000
   55       -6.253177   1.000000
   56       -6.244466   1.000000
   57       -6.209962   1.000000
   58       -6.188292   1.000000
   59       -6.157950   1.000000
   60       -6.118665   1.000000
   61       -6.088929   1.000000
   62       -6.026480   1.000000
   63       -6.021195   1.000000
   64       -6.019554   1.000000
   65       -5.998799   1.000000
   66       -5.986394   1.000000
   67       -5.930655   1.000000
   68       -5.918321   1.000000
   69       -5.851896   1.000000
   70       -5.720123   1.000000
   71       -5.717122   1.000000
   72       -5.707877   1.000000
   73       -5.703782   1.000000
   74       -5.674376   1.000000
   75       -5.639552   1.000000
   76       -5.627275   1.000000
   77       -5.573394   1.000000
   78       -5.568654   1.000000
   79       -5.552026   1.000000
   80       -5.532048   1.000000
   81       -5.516035   1.000000
   82       -5.479981   1.000000
   83       -5.415369   1.000000
   84       -5.410954   1.000000
   85       -5.383483   1.000000
   86       -5.364493   1.000000
   87       -5.357201   1.000000
   88       -5.335454   1.000000
   89       -5.308585   1.000000
   90       -5.295823   1.000000
   91       -5.290743   1.000000
   92       -5.277216   1.000000
   93       -5.234094   1.000000
   94       -5.212300   1.000000
   95       -5.192431   1.000000
   96       -5.167356   1.000000
   97       -5.138200   1.000000
   98       -5.136638   1.000000
   99       -5.095610   1.000000
  100       -5.093067   1.000000
  101       -5.088107   1.000000
  102       -5.071919   1.000000
  103       -5.030592   1.000000
  104       -5.006304   1.000000
  105       -4.975472   1.000000
  106       -4.931396   1.000000
  107       -4.830560   1.000000
  108       -4.823773   1.000000
  109       -4.810783   1.000000
  110       -4.795289   1.000000
  111       -4.751099   1.000000
  112       -4.696387   1.000000
  113       -4.694736   1.000000
  114       -4.683731   1.000000
  115       -4.676188   1.000000
  116       -4.640847   1.000000
  117       -4.626305   1.000000
  118       -4.611634   1.000000
  119       -4.604281   1.000000
  120       -4.597866   1.000000
  121       -4.595130   1.000000
  122       -4.593383   1.000000
  123       -4.578434   1.000000
  124       -4.574662   1.000000
  125       -4.562154   1.000000
  126       -4.536697   1.000000
  127       -4.511276   1.000000
  128       -4.492749   1.000000
  129       -4.479737   1.000000
  130       -4.456521   1.000000
  131       -4.445620   1.000000
  132       -4.420734   1.000000
  133       -4.402783   1.000000
  134       -4.382886   1.000000
  135       -4.380706   1.000000
  136       -4.352952   1.000000
  137       -4.340670   1.000000
  138       -4.263839   1.000000
  139       -4.252014   1.000000
  140       -4.242466   1.000000
  141       -4.236523   1.000000
  142       -4.191758   1.000000
  143       -4.175791   1.000000
  144       -4.164488   1.000000
  145       -4.164006   1.000000
  146       -4.160727   1.000000
  147       -4.151637   1.000000
  148       -4.140870   1.000000
  149       -4.103041   1.000000
  150       -4.090979   1.000000
  151       -4.082813   1.000000
  152       -4.020335   1.000000
  153       -4.018936   1.000000
  154       -4.010122   1.000000
  155       -4.004627   1.000000
  156       -3.999791   1.000000
  157       -3.999092   1.000000
  158       -3.986724   1.000000
  159       -3.964515   1.000000
  160       -3.940083   1.000000
  161       -3.932062   1.000000
  162       -3.914461   1.000000
  163       -3.910367   1.000000
  164       -3.898612   1.000000
  165       -3.888332   1.000000
  166       -3.881296   1.000000
  167       -3.865905   1.000000
  168       -3.850951   1.000000
  169       -3.833050   1.000000
  170       -3.820381   1.000000
  171       -3.775653   1.000000
  172       -3.773763   1.000000
  173       -3.752433   1.000000
  174       -3.752229   1.000000
  175       -3.748229   1.000000
  176       -3.747189   1.000000
  177       -3.731707   1.000000
  178       -3.723907   1.000000
  179       -3.688835   1.000000
  180       -3.671919   1.000000
  181       -3.670935   1.000000
  182       -3.654055   1.000000
  183       -3.649628   1.000000
  184       -3.648020   1.000000
  185       -3.617812   1.000000
  186       -3.609724   1.000000
  187       -3.595793   1.000000
  188       -3.585446   1.000000
  189       -3.577048   1.000000
  190       -3.535996   1.000000
  191       -3.498557   1.000000
  192       -3.477312   1.000000
  193       -3.467720   1.000000
  194       -3.454518   1.000000
  195       -3.446810   1.000000
  196       -3.441267   1.000000
  197       -3.358039   1.000000
  198       -3.355454   1.000000
  199       -3.352993   1.000000
  200       -3.308725   1.000000
  201       -3.279757   1.000000
  202       -3.255871   1.000000
  203       -3.253050   1.000000
  204       -3.251035   1.000000
  205       -3.234381   1.000000
  206       -3.228023   1.000000
  207       -3.161289   1.000000
  208       -3.124621   1.000000
  209       -3.075238   1.000000
  210       -3.064764   1.000000
  211       -3.060283   1.000000
  212       -3.033162   1.000000
  213       -3.031572   1.000000
  214       -3.023680   1.000000
  215       -3.001555   1.000000
  216       -3.001296   1.000000
  217       -2.984216   1.000000
  218       -2.983706   1.000000
  219       -2.970542   1.000000
  220       -2.970115   1.000000
  221       -2.938582   1.000000
  222       -2.938404   1.000000
  223       -2.916283   1.000000
  224       -2.875582   1.000000
  225       -2.846710   1.000000
  226       -2.834665   1.000000
  227       -2.788439   1.000000
  228       -2.740503   1.000000
  229       -2.679378   1.000000
  230       -2.656025   1.000000
  231       -2.639059   1.000000
  232       -2.624868   1.000000
  233       -2.539466   1.000000
  234       -2.532714   1.000000
  235       -2.523666   1.000000
  236       -2.515804   1.000000
  237       -2.508393   1.000000
  238       -2.485543   1.000000
  239       -2.458289   1.000000
  240       -2.456306   1.000000
  241       -2.441493   1.000000
  242       -2.421695   1.000000
  243       -2.382597   1.000000
  244       -2.332709   1.000000
  245       -2.329575   1.000000
  246       -2.306661   1.000000
  247       -2.298719   1.000000
  248       -2.282042   1.000000
  249       -2.279888   1.000000
  250       -2.273301   1.000000
  251       -2.220493   1.000000
  252       -2.143868   1.000000
  253       -2.137294   1.000000
  254       -2.128653   1.000000
  255       -2.117190   1.000000
  256       -2.107495   1.000000
  257       -2.094098   1.000000
  258       -2.093580   1.000000
  259       -2.073904   1.000000
  260       -2.069542   1.000000
  261       -2.057326   1.000000
  262       -2.047193   1.000000
  263       -2.011541   1.000000
  264       -2.003864   1.000000
  265       -1.978385   1.000000
  266       -1.974330   1.000000
  267       -1.961750   1.000000
  268       -1.955327   1.000000
  269       -1.947703   1.000000
  270       -1.941632   1.000000
  271       -1.917499   1.000000
  272       -1.886708   1.000000
  273       -1.880756   1.000000
  274       -1.847163   1.000000
  275       -1.820397   1.000000
  276       -1.819568   1.000000
  277       -1.813719   1.000000
  278       -1.813197   1.000000
  279       -1.790868   1.000000
  280       -1.786438   1.000000
  281       -1.678761   1.000000
  282       -1.645231   1.000000
  283       -1.644210   1.000000
  284       -1.630990   1.000000
  285       -1.596983   1.000000
  286       -1.539827   1.000000
  287       -1.533411   1.000000
  288       -1.526193   1.000000
  289       -1.514626   1.000000
  290       -1.479840   1.000000
  291       -1.456510   1.000000
  292       -1.449850   1.000000
  293       -1.430537   1.000000
  294       -1.423182   1.000000
  295       -1.403135   1.000000
  296       -1.345399   1.000000
  297       -1.312073   1.000004
  298       -1.283079   1.000024
  299       -1.236514   1.000319
  300       -1.235244   1.000340
  301       -1.230717   1.000427
  302       -1.180372   1.003853
  303       -1.172375   1.005166
  304       -1.127647   1.019377
  305       -1.123316   1.021327
  306       -1.075952   1.034845
  307       -1.064473   1.029523
  308       -1.058171   1.023654
  309       -1.049622   1.011550
  310       -1.041437   0.994759
  311       -1.034934   0.977326
  312       -1.013656   0.891893
  313       -0.999003   0.806915
  314       -0.991399   0.755088
  315       -0.979126   0.662326
  316       -0.977827   0.651975
  317       -0.956902   0.477733
  318       -0.933967   0.291280
  319       -0.921173   0.200329
  320       -0.911328   0.139918
  321       -0.893729   0.055633
  322       -0.892641   0.051445
  323       -0.863007  -0.021138
  324       -0.817147  -0.030867
  325       -0.800430  -0.023480
  326       -0.782074  -0.015427
  327       -0.773751  -0.012309
  328       -0.773315  -0.012158
  329       -0.761167  -0.008425
  330       -0.757977  -0.007600
  331       -0.756061  -0.007135
  332       -0.702052  -0.000824
  333       -0.688483  -0.000430
  334       -0.678894  -0.000265
  335       -0.654740  -0.000071
  336       -0.647258  -0.000046
  337       -0.615588  -0.000006
  338       -0.606437  -0.000004
  339       -0.597363  -0.000002
  340       -0.560530  -0.000000
  341       -0.377763  -0.000000
  342       -0.301804  -0.000000
  343       -0.223802  -0.000000
  344        0.004568  -0.000000
  345        0.008182  -0.000000
  346        0.221443  -0.000000
  347        0.227457  -0.000000
  348        0.238750  -0.000000
  349        0.317305  -0.000000
  350        0.452553  -0.000000
  351        0.460699  -0.000000
  352        0.648598  -0.000000
  353        0.950650  -0.000000
  354        0.977823  -0.000000
  355        0.983754  -0.000000
  356        1.119376  -0.000000
  357        1.181698  -0.000000
  358        1.284211  -0.000000
  359        1.310973  -0.000000
  360        1.318984  -0.000000
  361        1.325209  -0.000000
  362        1.461656  -0.000000
  363        1.474399  -0.000000
  364        1.633250  -0.000000
  365        1.814137   0.000000
  366        1.826530   0.000000
  367        1.840983   0.000000
  368        2.024862   0.000000
  369        2.071051   0.000000
  370        2.075322   0.000000
  371        2.363715   0.000000
  372        2.590900   0.000000
  373        2.619403   0.000000
  374        2.830369   0.000000
  375        2.892395   0.000000
  376        2.898194   0.000000
  377        2.915199   0.000000
  378        3.004668   0.000000
  379        3.255706   0.000000
  380        3.343231   0.000000
  381        3.347276   0.000000
  382        3.363226   0.000000
  383        3.802277   0.000000
  384        4.141581   0.000000
 
  0.5000000E+00  0.8561833E-16  0.0000000E+00  0.6250000E-01
    1       -9.734308   1.000000
    2       -9.728337   1.000000
    3       -8.802710   1.000000
    4       -8.798193   1.000000
    5       -8.442079   1.000000
    6       -8.425943   1.000000
    7       -7.621609   1.000000
    8       -7.589530   1.000000
    9       -7.582582   1.000000
   10       -7.572140   1.000000
   11       -7.531249   1.000000
   12       -7.523769   1.000000
   13       -7.515606   1.000000
   14       -7.513782   1.000000
   15       -7.309785   1.000000
   16       -7.305738   1.000000
   17       -7.261884   1.000000
   18       -7.255547   1.000000
   19       -7.200559   1.000000
   20       -7.185369   1.000000
   21       -7.162007   1.000000
   22       -7.156660   1.000000
   23       -7.150905   1.000000
   24       -7.140370   1.000000
   25       -6.981549   1.000000
   26       -6.971228   1.000000
   27       -6.969079   1.000000
   28       -6.963341   1.000000
   29       -6.906554   1.000000
   30       -6.858602   1.000000
   31       -6.855902   1.000000
   32       -6.848840   1.000000
   33       -6.710022   1.000000
   34       -6.692680   1.000000
   35       -6.647599   1.000000
   36       -6.622773   1.000000
   37       -6.618587   1.000000
   38       -6.608354   1.000000
   39       -6.591145   1.000000
   40       -6.579514   1.000000
   41       -6.501379   1.000000
   42       -6.500218   1.000000
   43       -6.493374   1.000000
   44       -6.479624   1.000000
   45       -6.479366   1.000000
   46       -6.474044   1.000000
   47       -6.409354   1.000000
   48       -6.392106   1.000000
   49       -6.360353   1.000000
   50       -6.348400   1.000000
   51       -6.347186   1.000000
   52       -6.340037   1.000000
   53       -6.324664   1.000000
   54       -6.313644   1.000000
   55       -6.296618   1.000000
   56       -6.277894   1.000000
   57       -6.274068   1.000000
   58       -6.265119   1.000000
   59       -6.216047   1.000000
   60       -6.142681   1.000000
   61       -6.136133   1.000000
   62       -6.135725   1.000000
   63       -6.098319   1.000000
   64       -6.090500   1.000000
   65       -6.088205   1.000000
   66       -6.077392   1.000000
   67       -5.960281   1.000000
   68       -5.953375   1.000000
   69       -5.901325   1.000000
   70       -5.717341   1.000000
   71       -5.713565   1.000000
   72       -5.712285   1.000000
   73       -5.710072   1.000000
   74       -5.685702   1.000000
   75       -5.655793   1.000000
   76       -5.652798   1.000000
   77       -5.651403   1.000000
   78       -5.606357   1.000000
   79       -5.605767   1.000000
   80       -5.600875   1.000000
   81       -5.590542   1.000000
   82       -5.575138   1.000000
   83       -5.519181   1.000000
   84       -5.395726   1.000000
   85       -5.394960   1.000000
   86       -5.393538   1.000000
   87       -5.378825   1.000000
   88       -5.346881   1.000000
   89       -5.344408   1.000000
   90       -5.322342   1.000000
   91       -5.292925   1.000000
   92       -5.277070   1.000000
   93       -5.254504   1.000000
   94       -5.233389   1.000000
   95       -5.176159   1.000000
   96       -5.164771   1.000000
   97       -5.150990   1.000000
   98       -5.051515   1.000000
   99       -5.048769   1.000000
  100       -5.043214   1.000000
  101       -5.028235   1.000000
  102       -5.008705   1.000000
  103       -4.998645   1.000000
  104       -4.992332   1.000000
  105       -4.987456   1.000000
  106       -4.974892   1.000000
  107       -4.914851   1.000000
  108       -4.805667   1.000000
  109       -4.798341   1.000000
  110       -4.796730   1.000000
  111       -4.794371   1.000000
  112       -4.792691   1.000000
  113       -4.763644   1.000000
  114       -4.721914   1.000000
  115       -4.714630   1.000000
  116       -4.710915   1.000000
  117       -4.695949   1.000000
  118       -4.635105   1.000000
  119       -4.623997   1.000000
  120       -4.605169   1.000000
  121       -4.604411   1.000000
  122       -4.492149   1.000000
  123       -4.487963   1.000000
  124       -4.478867   1.000000
  125       -4.464805   1.000000
  126       -4.431855   1.000000
  127       -4.428232   1.000000
  128       -4.397275   1.000000
  129       -4.379147   1.000000