       N       E                     dE             d eps       ncg     rms          rms(c)
DAV:   1     0.419333124265E+04    0.41933E+04   -0.23251E+05  7680   0.112E+03
DAV:   2    -0.152973852905E+02   -0.42086E+04   -0.38678E+04  9672   0.253E+02
DAV:   3    -0.379099047182E+03   -0.36380E+03   -0.33253E+03  8888   0.716E+01
DAV:   4    -0.398041356814E+03   -0.18942E+02   -0.17187E+02 10560   0.141E+01
DAV:   5    -0.398594798767E+03   -0.55344E+00   -0.54217E+00  9440   0.243E+00    0.810E+01
RMM:   6    -0.385627785262E+03    0.12967E+02   -0.68722E+01  7714   0.134E+01    0.597E+01
RMM:   7    -0.473642697681E+03   -0.88015E+02   -0.16249E+02  7701   0.151E+01    0.801E+01
RMM:   8    -0.388720803657E+03    0.84922E+02   -0.51314E+01  7727   0.928E+00    0.363E+01
RMM:   9    -0.409493890073E+03   -0.20773E+02   -0.39113E+01  7714   0.741E+00    0.499E+01
RMM:  10    -0.405905196699E+03    0.35887E+01   -0.26471E+01  7708   0.572E+00    0.500E+01
RMM:  11    -0.380748794074E+03    0.25156E+02   -0.61071E+00  7724   0.309E+00    0.262E+01
RMM:  12    -0.377453847329E+03    0.32949E+01   -0.34198E+00  7720   0.231E+00    0.203E+01
RMM:  13    -0.375464801764E+03    0.19890E+01   -0.22506E+00  7737   0.174E+00    0.140E+01
RMM:  14    -0.374612958199E+03    0.85184E+00   -0.17141E+00  7727   0.158E+00    0.114E+01
RMM:  15    -0.373773149801E+03    0.83981E+00   -0.78175E-01  7732   0.105E+00    0.566E+00
RMM:  16    -0.373652243552E+03    0.12091E+00   -0.15728E-01  7817   0.465E-01    0.447E+00
RMM:  17    -0.373612431807E+03    0.39812E-01   -0.25845E-02  7883   0.197E-01    0.347E+00
RMM:  18    -0.373564897911E+03    0.47534E-01   -0.39247E-02  7743   0.247E-01    0.232E+00
RMM:  19    -0.373555924700E+03    0.89732E-02   -0.46436E-02  7732   0.270E-01    0.207E+00
RMM:  20    -0.373544062319E+03    0.11862E-01   -0.26160E-02  7733   0.205E-01    0.162E+00
RMM:  21    -0.373539691389E+03    0.43709E-02   -0.13913E-02  7731   0.147E-01    0.131E+00
RMM:  22    -0.373529690689E+03    0.10001E-01   -0.66936E-03  7729   0.103E-01    0.640E-01
RMM:  23    -0.373528029828E+03    0.16609E-02   -0.22883E-03  7760   0.584E-02    0.476E-01
RMM:  24    -0.373527899059E+03    0.13077E-03   -0.98263E-04  7763   0.384E-02    0.470E-01
RMM:  25    -0.373527237352E+03    0.66171E-03   -0.51073E-04  7705   0.284E-02    0.385E-01
RMM:  26    -0.373526664119E+03    0.57323E-03   -0.32977E-04  7701   0.220E-02    0.311E-01
RMM:  27    -0.373525964609E+03    0.69951E-03   -0.63590E-04  7720   0.282E-02    0.184E-01
RMM:  28    -0.373525866810E+03    0.97799E-04   -0.24358E-04  7724   0.177E-02    0.148E-01
RMM:  29    -0.373525799210E+03    0.67600E-04   -0.10412E-04  7634   0.124E-02    0.983E-02
RMM:  30    -0.373525808971E+03   -0.97617E-05   -0.43924E-05  5559   0.793E-03
   1 F= -.37352581E+03 E0= -.37351239E+03  d E =-.373526E+03
       N       E                     dE             d eps       ncg     rms          rms(c)
DAV:   1    -0.373887891661E+03   -0.36209E+00   -0.71881E+01  7728   0.107E+01    0.139E+00
RMM:   2    -0.373979865370E+03   -0.91974E-01   -0.93959E-01  7713   0.158E+00    0.148E+00
RMM:   3    -0.374115202714E+03   -0.13534E+00   -0.89925E-02  7854   0.381E-01    0.442E+00
RMM:   4    -0.374005923400E+03    0.10928E+00   -0.42307E-02  7749   0.248E-01    0.230E+00
RMM:   5    -0.373973260998E+03    0.32662E-01   -0.15856E-02  7734   0.162E-01    0.792E-01
RMM:   6    -0.373971909617E+03    0.13514E-02   -0.10059E-02  7723   0.126E-01    0.669E-01
RMM:   7    -0.373970890245E+03    0.10194E-02   -0.69107E-03  7741   0.108E-01    0.435E-01
RMM:   8    -0.373969506222E+03    0.13840E-02   -0.26726E-03  7723   0.676E-02    0.222E-01
RMM:   9    -0.373969256859E+03    0.24936E-03   -0.54666E-04  7721   0.300E-02    0.151E-01
RMM:  10    -0.373969114607E+03    0.14225E-03   -0.20789E-04  7672   0.185E-02    0.951E-02
RMM:  11    -0.373969063579E+03    0.51028E-04   -0.83013E-05  7308   0.116E-02    0.466E-02
RMM:  12    -0.373969084918E+03   -0.21339E-04   -0.36961E-05  5146   0.791E-03    0.338E-02
RMM:  13    -0.373969119861E+03   -0.34943E-04   -0.23409E-05  4348   0.659E-03    0.280E-02
RMM:  14    -0.373969136258E+03   -0.16398E-04   -0.83775E-06  4116   0.438E-03    0.148E-02
RMM:  15    -0.373969146770E+03   -0.10512E-04   -0.23986E-06  4006   0.225E-03    0.782E-03
RMM:  16    -0.373969174825E+03   -0.28054E-04   -0.17545E-06  3529   0.174E-03    0.560E-03
RMM:  17    -0.373969193489E+03   -0.18664E-04   -0.72040E-07  2147   0.135E-03    0.390E-03
RMM:  18    -0.373969220923E+03   -0.27434E-04   -0.11259E-06  2908   0.145E-03    0.622E-03
RMM:  19    -0.373969261924E+03   -0.41001E-04   -0.16160E-06  2468   0.146E-03    0.428E-03
RMM:  20    -0.373969280955E+03   -0.19031E-04   -0.68532E-07  1485   0.120E-03    0.252E-03
RMM:  21    -0.373969296451E+03   -0.15496E-04   -0.67180E-07  1523   0.116E-03    0.156E-03
RMM:  22    -0.373969315364E+03   -0.18913E-04   -0.10034E-06  1977   0.126E-03    0.181E-03
RMM:  23    -0.373969327703E+03   -0.12339E-04   -0.60792E-07  1479   0.111E-03    0.225E-03
RMM:  24    -0.373969339405E+03   -0.11702E-04   -0.68218E-07  1485   0.110E-03    0.196E-03
RMM:  25    -0.373969348393E+03   -0.89876E-05   -0.48220E-07  1169   0.106E-03
   2 F= -.37396935E+03 E0= -.37395638E+03  d E =-.443539E+00
       N       E                     dE             d eps       ncg     rms          rms(c)
DAV:   1    -0.373985883367E+03   -0.16544E-01   -0.42414E+00  7824   0.259E+00    0.430E-01
RMM:   2    -0.373991313805E+03   -0.54304E-02   -0.56565E-02  7721   0.387E-01    0.403E-01
RMM:   3    -0.374008781471E+03   -0.17468E-01   -0.73236E-03  7803   0.106E-01    0.158E+00
RMM:   4    -0.373992726904E+03    0.16055E-01   -0.38010E-03  7741   0.741E-02    0.594E-01
RMM:   5    -0.373990792463E+03    0.19344E-02   -0.14330E-03  7738   0.488E-02    0.202E-01
RMM:   6    -0.373990897054E+03   -0.10459E-03   -0.83488E-04  7724   0.367E-02    0.210E-01
RMM:   7    -0.373990748051E+03    0.14900E-03   -0.45249E-04  7703   0.277E-02    0.125E-01
RMM:   8    -0.373990627663E+03    0.12039E-03   -0.15661E-04  7668   0.162E-02    0.581E-02
RMM:   9    -0.373990608935E+03    0.18728E-04   -0.26471E-05  4541   0.701E-03    0.323E-02
RMM:  10    -0.373990607115E+03    0.18196E-05   -0.13572E-05  4107   0.515E-03
   3 F= -.37399061E+03 E0= -.37397772E+03  d E =-.464798E+00
       N       E                     dE             d eps       ncg     rms          rms(c)
DAV:   1    -0.373990776146E+03   -0.16721E-03   -0.46547E-02  7824   0.273E-01    0.504E-02
RMM:   2    -0.373990866583E+03   -0.90437E-04   -0.65727E-04  7713   0.415E-02    0.847E-02
RMM:   3    -0.373990910264E+03   -0.43681E-04   -0.88824E-05  7292   0.122E-02    0.116E-01
RMM:   4    -0.373990901292E+03    0.89720E-05   -0.47407E-05  5908   0.828E-03
   4 F= -.37399090E+03 E0= -.37397806E+03  d E =-.465092E+00
       N       E                     dE             d eps       ncg     rms          rms(c)
DAV:   1    -0.374019604314E+03   -0.28694E-01   -0.10167E+01  7712   0.412E+00    0.504E-01
RMM:   2    -0.374036648337E+03   -0.17044E-01   -0.12956E-01  7722   0.628E-01    0.977E-01
RMM:   3    -0.374036610419E+03    0.37919E-04   -0.10984E-02  8091   0.141E-01    0.916E-01
RMM:   4    -0.374034299929E+03    0.23105E-02   -0.37900E-03  7750   0.761E-02    0.730E-01
RMM:   5    -0.374031682660E+03    0.26173E-02   -0.38026E-03  7722   0.759E-02    0.490E-01
RMM:   6    -0.374030908515E+03    0.77415E-03   -0.28469E-03  7726   0.667E-02    0.307E-01
RMM:   7    -0.374030812387E+03    0.96128E-04   -0.17769E-03  7733   0.537E-02    0.263E-01
RMM:   8    -0.374030404192E+03    0.40819E-03   -0.59372E-04  7720   0.314E-02    0.138E-01
RMM:   9    -0.374030276686E+03    0.12751E-03   -0.12611E-04  7640   0.143E-02    0.570E-02
RMM:  10    -0.374030250752E+03    0.25934E-04   -0.46974E-05  6016   0.887E-03    0.420E-02
RMM:  11    -0.374030233632E+03    0.17120E-04   -0.51485E-05  6323   0.899E-03    0.350E-02
RMM:  12    -0.374030222039E+03    0.11593E-04   -0.25558E-05  4268   0.700E-03    0.175E-02
RMM:  13    -0.374030223397E+03   -0.13587E-05   -0.83391E-06  3956   0.431E-03
   5 F= -.37403022E+03 E0= -.37401749E+03  d E =-.393221E-01
       N       E                     dE             d eps       ncg     rms          rms(c)
DAV:   1    -0.374017221538E+03    0.13001E-01   -0.55894E+01  7680   0.969E+00    0.119E+00
RMM:   2    -0.374101378416E+03   -0.84157E-01   -0.71463E-01  7721   0.148E+00    0.198E+00
RMM:   3    -0.374102011959E+03   -0.63354E-03   -0.58826E-02  8088   0.332E-01    0.180E+00
RMM:   4    -0.374119655169E+03   -0.17643E-01   -0.20735E-02  7766   0.173E-01    0.239E+00
RMM:   5    -0.374087022610E+03    0.32633E-01   -0.22963E-02  7725   0.184E-01    0.137E+00
RMM:   6    -0.374079855904E+03    0.71667E-02   -0.16492E-02  7737   0.161E-01    0.758E-01
RMM:   7    -0.374078715762E+03    0.11401E-02   -0.10649E-02  7728   0.131E-01    0.631E-01
RMM:   8    -0.374076693432E+03    0.20223E-02   -0.37184E-03  7736   0.781E-02    0.378E-01
RMM:   9    -0.374075751111E+03    0.94232E-03   -0.86831E-04  7722   0.377E-02    0.149E-01
RMM:  10    -0.374075559328E+03    0.19178E-03   -0.29404E-04  7702   0.219E-02    0.983E-02
RMM:  11    -0.374075455946E+03    0.10338E-03   -0.30190E-04  7671   0.211E-02    0.875E-02
RMM:  12    -0.374075374998E+03    0.80948E-04   -0.17575E-04  7686   0.167E-02    0.403E-02
RMM:  13    -0.374075380643E+03   -0.56445E-05   -0.51532E-05  6159   0.914E-03
   6 F= -.37407538E+03 E0= -.37406284E+03  d E =-.844794E-01
       N       E                     dE             d eps       ncg     rms          rms(c)
DAV:   1    -0.374092259040E+03   -0.16884E-01   -0.13166E+01  7680   0.480E+00    0.484E-01
RMM:   2    -0.374109984981E+03   -0.17726E-01   -0.16116E-01  7719   0.719E-01    0.736E-01
RMM:   3    -0.374117506292E+03   -0.75213E-02   -0.14174E-02  8255   0.157E-01    0.125E+00
RMM:   4    -0.374107570625E+03    0.99357E-02   -0.38837E-03  7739   0.801E-02    0.424E-01
RMM:   5    -0.374106909585E+03    0.66104E-03   -0.34141E-03  7717   0.740E-02    0.443E-01
RMM:   6    -0.374106728227E+03    0.18136E-03   -0.22181E-03  7723   0.587E-02    0.382E-01
RMM:   7    -0.374106156457E+03    0.57177E-03   -0.18658E-03  7727   0.553E-02    0.200E-01
RMM:   8    -0.374105829464E+03    0.32699E-03   -0.50182E-04  7717   0.294E-02    0.672E-02
RMM:   9    -0.374105811960E+03    0.17504E-04   -0.93493E-05  7647   0.124E-02    0.714E-02
RMM:  10    -0.374105784065E+03    0.27896E-04   -0.48588E-05  6212   0.904E-03    0.475E-02
RMM:  11    -0.374105764019E+03    0.20046E-04   -0.32424E-05  4502   0.789E-03    0.157E-02
RMM:  12    -0.374105765465E+03   -0.14460E-05   -0.13907E-05  4038   0.544E-03
   7 F= -.37410577E+03 E0= -.37409299E+03  d E =-.303848E-01
       N       E                     dE             d eps       ncg     rms          rms(c)
DAV:   1    -0.374108534272E+03   -0.27703E-02   -0.94947E+00  7680   0.408E+00    0.412E-01
RMM:   2    -0.374120696149E+03   -0.12162E-01   -0.11622E-01  7719   0.611E-01    0.554E-01
RMM:   3    -0.374127788740E+03   -0.70926E-02   -0.10246E-02  8194   0.134E-01    0.113E+00
RMM:   4    -0.374119619795E+03    0.81689E-02   -0.27414E-03  7735   0.668E-02    0.376E-01
RMM:   5    -0.374119065669E+03    0.55413E-03   -0.25105E-03  7720   0.634E-02    0.368E-01
RMM:   6    -0.374118989365E+03    0.76304E-04   -0.16169E-03  7723   0.501E-02    0.324E-01
RMM:   7    -0.374118572823E+03    0.41654E-03   -0.13037E-03  7724   0.464E-02    0.175E-01
RMM:   8    -0.374118343280E+03    0.22954E-03   -0.36303E-04  7712   0.249E-02    0.656E-02
RMM:   9    -0.374118325333E+03    0.17947E-04   -0.71091E-05  7243   0.109E-02    0.616E-02
RMM:  10    -0.374118303122E+03    0.22212E-04   -0.37771E-05  5175   0.816E-03    0.405E-02
RMM:  11    -0.374118290102E+03    0.13020E-04   -0.22324E-05  4132   0.682E-03    0.181E-02
RMM:  12    -0.374118289120E+03    0.98180E-06   -0.97662E-06  3999   0.464E-03
   8 F= -.37411829E+03 E0= -.37410532E+03  d E =-.429085E-01
       N       E                     dE             d eps       ncg     rms          rms(c)
DAV:   1    -0.374118152464E+03    0.13764E-03   -0.16740E+00  7696   0.171E+00    0.175E-01
RMM:   2    -0.374120234819E+03   -0.20824E-02   -0.20559E-02  7719   0.257E-01    0.226E-01
RMM:   3    -0.374121580833E+03   -0.13460E-02   -0.18170E-03  8117   0.566E-02    0.490E-01
RMM:   4    -0.374120072842E+03    0.15080E-02   -0.48107E-04  7732   0.278E-02    0.161E-01
RMM:   5    -0.374119998360E+03    0.74482E-04   -0.44605E-04  7702   0.268E-02    0.157E-01
RMM:   6    -0.374119980219E+03    0.18141E-04   -0.29228E-04  7687   0.213E-02    0.135E-01
RMM:   7    -0.374119926993E+03    0.53226E-04   -0.23550E-04  7686   0.198E-02    0.735E-02
RMM:   8    -0.374119887381E+03    0.39612E-04   -0.67624E-05  7161   0.109E-02    0.280E-02
RMM:   9    -0.374119884651E+03    0.27298E-05   -0.11401E-05  4076   0.469E-03
   9 F= -.37411988E+03 E0= -.37410685E+03  d E =-.445040E-01
       N       E                     dE             d eps       ncg     rms          rms(c)
DAV:   1    -0.374117650959E+03    0.22364E-02   -0.18659E+01  7680   0.546E+00    0.593E-01
RMM:   2    -0.374144455275E+03   -0.26804E-01   -0.22698E-01  7718   0.824E-01    0.102E+00
RMM:   3    -0.374147002965E+03   -0.25477E-02   -0.19466E-02  8588   0.183E-01    0.112E+00
RMM:   4    -0.374141241898E+03    0.57611E-02   -0.60549E-03  7745   0.990E-02    0.726E-01
RMM:   5    -0.374138195221E+03    0.30467E-02   -0.47170E-03  7731   0.866E-02    0.450E-01
RMM:   6    -0.374138745557E+03   -0.55034E-03   -0.42148E-03  7728   0.807E-02    0.461E-01
RMM:   7    -0.374137621841E+03    0.11237E-02   -0.24518E-03  7739   0.641E-02    0.231E-01
RMM:   8    -0.374137206468E+03    0.41537E-03   -0.49324E-04  7732   0.290E-02    0.939E-02
RMM:   9    -0.374137169135E+03    0.37333E-04   -0.93816E-05  7622   0.123E-02    0.765E-02
RMM:  10    -0.374137128291E+03    0.40843E-04   -0.87581E-05  7498   0.118E-02    0.561E-02
RMM:  11    -0.374137105955E+03    0.22336E-04   -0.42768E-05  5465   0.851E-03    0.255E-02
RMM:  12    -0.374137109992E+03   -0.40374E-05   -0.22296E-05  4246   0.657E-03
  10 F= -.37413711E+03 E0= -.37412381E+03  d E =-.172253E-01
       N       E                     dE             d eps       ncg     rms          rms(c)
DAV:   1    -0.374137275336E+03   -0.16938E-03   -0.65347E-01  7744   0.102E+00    0.111E-01
RMM:   2    -0.374138224348E+03   -0.94901E-03   -0.78271E-03  7721   0.154E-01    0.214E-01
RMM:   3    -0.374138205523E+03    0.18824E-04   -0.67358E-04  8466   0.341E-02    0.203E-01
RMM:   4    -0.374138052289E+03    0.15323E-03   -0.20754E-04  7703   0.184E-02    0.144E-01
RMM:   5    -0.374137953519E+03    0.98770E-04   -0.17082E-04  7669   0.167E-02    0.848E-02
RMM:   6    -0.374137971427E+03   -0.17908E-04   -0.15905E-04  7664   0.157E-02    0.767E-02
RMM:   7    -0.374137959593E+03    0.11834E-04   -0.89782E-05  7459   0.123E-02    0.464E-02
RMM:   8    -0.374137943344E+03    0.16250E-04   -0.19015E-05  4248   0.617E-03    0.220E-02
RMM:   9    -0.374137941258E+03    0.20857E-05   -0.52385E-06  3938   0.326E-03
  11 F= -.37413794E+03 E0= -.37412462E+03  d E =-.180566E-01
       N       E                     dE             d eps       ncg     rms          rms(c)
DAV:   1    -0.374144746631E+03   -0.68033E-02   -0.97278E+00  7680   0.415E+00    0.486E-01
RMM:   2    -0.374160008589E+03   -0.15262E-01   -0.12015E-01  7721   0.615E-01    0.866E-01
RMM:   3    -0.374162290011E+03   -0.22814E-02   -0.11470E-02  8306   0.143E-01    0.995E-01
RMM:   4    -0.374157818730E+03    0.44713E-02   -0.46212E-03  7746   0.865E-02    0.656E-01
RMM:   5    -0.374155682974E+03    0.21358E-02   -0.29997E-03  7724   0.693E-02    0.406E-01
RMM:   6    -0.374155111361E+03    0.57161E-03   -0.22990E-03  7724   0.596E-02    0.250E-01
RMM:   7    -0.374155168680E+03   -0.57318E-04   -0.13986E-03  7733   0.471E-02    0.224E-01
RMM:   8    -0.374154793905E+03    0.37477E-03   -0.48573E-04  7706   0.290E-02    0.111E-01
RMM:   9    -0.374154713398E+03    0.80506E-04   -0.10002E-04  7623   0.131E-02    0.537E-02
RMM:  10    -0.374154704725E+03    0.86736E-05   -0.38711E-05  5374   0.815E-03
  12 F= -.37415470E+03 E0= -.37414107E+03  d E =-.167635E-01
       N       E                     dE             d eps       ncg     rms          rms(c)
DAV:   1    -0.374156017161E+03   -0.13038E-02   -0.11329E+00  7712   0.142E+00    0.177E-01
RMM:   2    -0.374157888945E+03   -0.18718E-02   -0.14466E-02  7725   0.212E-01    0.310E-01
RMM:   3    -0.374158519698E+03   -0.63075E-03   -0.14855E-03  8133   0.509E-02    0.426E-01
RMM:   4    -0.374157545254E+03    0.97444E-03   -0.64561E-04  7725   0.321E-02    0.227E-01
RMM:   5    -0.374157325986E+03    0.21927E-03   -0.36289E-04  7690   0.243E-02    0.146E-01
RMM:   6    -0.374157260023E+03    0.65963E-04   -0.26147E-04  7687   0.203E-02    0.889E-02
RMM:   7    -0.374157252022E+03    0.80008E-05   -0.17760E-04  7684   0.169E-02    0.608E-02
RMM:   8    -0.374157237818E+03    0.14204E-04   -0.48794E-05  6105   0.946E-03    0.497E-02
RMM:   9    -0.374157222366E+03    0.15453E-04   -0.10654E-05  4028   0.476E-03    0.157E-02
RMM:  10    -0.374157222030E+03    0.33524E-06   -0.50689E-06  3963   0.314E-03
  13 F= -.37415722E+03 E0= -.37414352E+03  d E =-.192808E-01
       N       E                     dE             d eps       ncg     rms          rms(c)
DAV:   1    -0.374152645553E+03    0.45768E-02   -0.45372E+00  7680   0.284E+00    0.342E-01
RMM:   2    -0.374159478698E+03   -0.68331E-02   -0.56396E-02  7721   0.421E-01    0.560E-01
RMM:   3    -0.374161820331E+03   -0.23416E-02   -0.55744E-03  8221   0.991E-02    0.778E-01
RMM:   4    -0.374158825237E+03    0.29951E-02   -0.23135E-03  7738   0.608E-02    0.474E-01
RMM:   5    -0.374157729111E+03    0.10961E-02   -0.14640E-03  7714   0.485E-02    0.279E-01
RMM:   6    -0.374157440099E+03    0.28901E-03   -0.11077E-03  7717   0.414E-02    0.162E-01
RMM:   7    -0.374157489353E+03   -0.49254E-04   -0.63960E-04  7728   0.320E-02    0.152E-01
RMM:   8    -0.374157328138E+03    0.16122E-03   -0.22045E-04  7685   0.195E-02    0.828E-02
RMM:   9    -0.374157283135E+03    0.45003E-04   -0.46066E-05  5976   0.909E-03    0.360E-02
RMM:  10    -0.374157279861E+03    0.32734E-05   -0.18340E-05  4188   0.588E-03
  14 F= -.37415728E+03 E0= -.37414335E+03  d E =-.193386E-01
       N       E                     dE             d eps       ncg     rms          rms(c)
DAV:   1    -0.374156315596E+03    0.96754E-03   -0.17786E+00  7680   0.178E+00    0.215E-01
RMM:   2    -0.374159169951E+03   -0.28544E-02   -0.22278E-02  7724   0.264E-01    0.394E-01
RMM:   3    -0.374159704805E+03   -0.53485E-03   -0.22089E-03  8196   0.621E-02    0.470E-01
RMM:   4    -0.374158588200E+03    0.11166E-02   -0.90063E-04  7737   0.381E-02    0.279E-01
RMM:   5    -0.374158250617E+03    0.33758E-03   -0.59006E-04  7712   0.307E-02    0.189E-01
RMM:   6    -0.374158116204E+03    0.13441E-03   -0.45959E-04  7701   0.267E-02    0.107E-01
RMM:   7    -0.374158151135E+03   -0.34931E-04   -0.27076E-04  7696   0.205E-02    0.104E-01
RMM:   8    -0.374158068370E+03    0.82765E-04   -0.97656E-05  7567   0.130E-02    0.411E-02
RMM:   9    -0.374158057004E+03    0.11366E-04   -0.18110E-05  4201   0.598E-03    0.255E-02
RMM:  10    -0.374158054844E+03    0.21600E-05   -0.72589E-06  3950   0.377E-03
  15 F= -.37415805E+03 E0= -.37414429E+03  d E =-.201136E-01
       N       E                     dE             d eps       ncg     rms          rms(c)
DAV:   1    -0.374154479279E+03    0.35777E-02   -0.12579E+01  7680   0.466E+00    0.481E-01
RMM:   2    -0.374172760482E+03   -0.18281E-01   -0.16104E-01  7721   0.714E-01    0.825E-01
RMM:   3    -0.374174624652E+03   -0.18642E-02   -0.13393E-02  8433   0.158E-01    0.883E-01
RMM:   4    -0.374173813634E+03    0.81102E-03   -0.44538E-03  7746   0.820E-02    0.901E-01
RMM:   5    -0.374169134699E+03    0.46789E-02   -0.30127E-03  7725   0.696E-02    0.424E-01
RMM:   6    -0.374168728566E+03    0.40613E-03   -0.27265E-03  7724   0.660E-02    0.315E-01
RMM:   7    -0.374168617297E+03    0.11127E-03   -0.20249E-03  7735   0.565E-02    0.258E-01
RMM:   8    -0.374168284954E+03    0.33234E-03   -0.67935E-04  7732   0.339E-02    0.165E-01
RMM:   9    -0.374168137874E+03    0.14708E-03   -0.17886E-04  7678   0.173E-02    0.787E-02
RMM:  10    -0.374168090675E+03    0.47199E-04   -0.83054E-05  7448   0.115E-02    0.567E-02
RMM:  11    -0.374168057912E+03    0.32763E-04   -0.55965E-05  6527   0.939E-03    0.271E-02
RMM:  12    -0.374168053373E+03    0.45382E-05   -0.13876E-05  4051   0.529E-03
  16 F= -.37416805E+03 E0= -.37415425E+03  d E =-.999853E-02
       N       E                     dE             d eps       ncg     rms          rms(c)
DAV:   1    -0.374168115064E+03   -0.57153E-04   -0.24421E-02  7840   0.205E-01    0.297E-02
RMM:   2    -0.374168194173E+03   -0.79108E-04   -0.37320E-04  7709   0.334E-02    0.907E-02
RMM:   3    -0.374168147924E+03    0.46248E-04   -0.46435E-05  5876   0.979E-03    0.417E-02
RMM:   4    -0.374168150714E+03   -0.27894E-05   -0.94127E-06  4059   0.451E-03
  17 F= -.37416815E+03 E0= -.37415432E+03  d E =-.100959E-01
       N       E                     dE             d eps       ncg     rms          rms(c)
DAV:   1    -0.374169523830E+03   -0.13759E-02   -0.13554E+00  7712   0.156E+00    0.181E-01
RMM:   2    -0.374172135999E+03   -0.26122E-02   -0.17782E-02  7725   0.238E-01    0.400E-01
RMM:   3    -0.374171611663E+03    0.52434E-03   -0.14323E-03  8230   0.517E-02    0.264E-01
RMM:   4    -0.374171954088E+03   -0.34243E-03   -0.77396E-04  7733   0.341E-02    0.376E-01
RMM:   5    -0.374171232353E+03    0.72174E-03   -0.35259E-04  7706   0.242E-02    0.200E-01
RMM:   6    -0.374171170165E+03    0.62188E-04   -0.32026E-04  7709   0.226E-02    0.165E-01
RMM:   7    -0.374171091506E+03    0.78659E-04   -0.23425E-04  7681   0.194E-02    0.107E-01
RMM:   8    -0.374171025216E+03    0.66290E-04   -0.10132E-04  7641   0.130E-02    0.491E-02
RMM:   9    -0.374171012345E+03    0.12870E-04   -0.18545E-05  4229   0.600E-03    0.282E-02
RMM:  10    -0.374171008583E+03    0.37624E-05   -0.80971E-06  4033   0.395E-03
  18 F= -.37417101E+03 E0= -.37415729E+03  d E =-.285787E-02
       N       E                     dE             d eps       ncg     rms          rms(c)
DAV:   1    -0.374171259067E+03   -0.24672E-03   -0.11310E-01  7760   0.449E-01    0.550E-02
RMM:   2    -0.374171751075E+03   -0.49201E-03   -0.16065E-03  7731   0.703E-02    0.227E-01
RMM:   3    -0.374171401116E+03    0.34996E-03   -0.13494E-04  7791   0.159E-02    0.515E-02
RMM:   4    -0.374171451291E+03   -0.50175E-04   -0.69565E-05  7187   0.108E-02    0.977E-02
RMM:   5    -0.374171410496E+03    0.40795E-04   -0.26552E-05  4420   0.724E-03    0.602E-02
RMM:   6    -0.374171405711E+03    0.47853E-05   -0.23292E-05  4273   0.697E-03
  19 F= -.37417141E+03 E0= -.37415769E+03  d E =-.325500E-02
       N       E                     dE             d eps       ncg     rms          rms(c)
DAV:   1    -0.374172497177E+03   -0.10867E-02   -0.52021E-01  7680   0.980E-01    0.113E-01
RMM:   2    -0.374173325453E+03   -0.82828E-03   -0.65530E-03  7727   0.146E-01    0.189E-01
RMM:   3    -0.374173765702E+03   -0.44025E-03   -0.68748E-04  7916   0.352E-02    0.307E-01
RMM:   4    -0.374173349562E+03    0.41614E-03   -0.27010E-04  7705   0.195E-02    0.203E-01
RMM:   5    -0.374173098940E+03    0.25062E-03   -0.12364E-04  7685   0.146E-02    0.671E-02
RMM:   6    -0.374173084662E+03    0.14279E-04   -0.85169E-05  7642   0.119E-02    0.525E-02
RMM:   7    -0.374173086667E+03   -0.20053E-05   -0.68741E-05  7281   0.107E-02
  20 F= -.37417309E+03 E0= -.37415946E+03  d E =-.168096E-02
       N       E                     dE             d eps       ncg     rms          rms(c)
DAV:   1    -0.374173335377E+03   -0.25072E-03   -0.53572E-02  7712   0.315E-01    0.412E-02
RMM:   2    -0.374173655066E+03   -0.31969E-03   -0.78588E-04  7748   0.485E-02    0.194E-01
RMM:   3    -0.374173450951E+03    0.20411E-03   -0.10258E-04  7602   0.134E-02    0.924E-02
RMM:   4    -0.374173405950E+03    0.45001E-04   -0.30014E-05  4836   0.740E-03    0.426E-02
RMM:   5    -0.374173402542E+03    0.34080E-05   -0.14351E-05  4109   0.557E-03
  21 F= -.37417340E+03 E0= -.37415972E+03  d E =-.199683E-02
       N       E                     dE             d eps       ncg     rms          rms(c)
DAV:   1    -0.374173370210E+03    0.35740E-04   -0.41104E-01  7680   0.829E-01    0.104E-01
RMM:   2    -0.374174045272E+03   -0.67506E-03   -0.55085E-03  7732   0.128E-01    0.183E-01
RMM:   3    -0.374174371639E+03   -0.32637E-03   -0.55245E-04  7920   0.310E-02    0.286E-01
RMM:   4    -0.374173880706E+03    0.49093E-03   -0.19076E-04  7694   0.171E-02    0.113E-01
RMM:   5    -0.374173840396E+03    0.40309E-04   -0.11396E-04  7652   0.137E-02    0.786E-02
RMM:   6    -0.374173841618E+03   -0.12219E-05   -0.93747E-05  7582   0.124E-02
  22 F= -.37417384E+03 E0= -.37416019E+03  d E =-.439076E-03
       N       E                     dE             d eps       ncg     rms          rms(c)
DAV:   1    -0.374173913267E+03   -0.72871E-04   -0.35818E-02  7680   0.246E-01    0.639E-02
RMM:   2    -0.374174323145E+03   -0.40988E-03   -0.97175E-04  7738   0.482E-02    0.221E-01
RMM:   3    -0.374173949012E+03    0.37413E-03   -0.23998E-04  7668   0.206E-02    0.613E-02
RMM:   4    -0.374173931961E+03    0.17051E-04   -0.28191E-05  4690   0.721E-03    0.346E-02
RMM:   5    -0.374173943963E+03   -0.12002E-04   -0.10065E-05  4039   0.416E-03    0.535E-02
RMM:   6    -0.374173926328E+03    0.17635E-04   -0.56365E-06  3949   0.324E-03    0.195E-02
RMM:   7    -0.374173925829E+03    0.49904E-06   -0.49212E-06  3877   0.324E-03
  23 F= -.37417393E+03 E0= -.37416030E+03  d E =-.523287E-03
       N       E                     dE             d eps       ncg     rms          rms(c)
DAV:   1    -0.374174497432E+03   -0.57110E-03   -0.10143E-01  7680   0.435E-01    0.476E-02
RMM:   2    -0.374174726819E+03   -0.22939E-03   -0.13290E-03  7727   0.644E-02    0.133E-01
RMM:   3    -0.374174650679E+03    0.76140E-04   -0.11398E-04  7726   0.147E-02    0.828E-02
RMM:   4    -0.374174627562E+03    0.23117E-04   -0.29018E-05  4804   0.740E-03    0.586E-02
RMM:   5    -0.374174620321E+03    0.72413E-05   -0.29180E-05  4657   0.744E-03
  24 F= -.37417462E+03 E0= -.37416103E+03  d E =-.694491E-03
       N       E                     dE             d eps       ncg     rms          rms(c)
DAV:   1    -0.374174978117E+03   -0.35055E-03   -0.91352E-01  7680   0.131E+00    0.154E-01
RMM:   2    -0.374176617962E+03   -0.16398E-02   -0.11611E-02  7729   0.191E-01    0.313E-01
RMM:   3    -0.374176452692E+03    0.16527E-03   -0.10238E-03  8239   0.435E-02    0.265E-01
RMM:   4    -0.374176294062E+03    0.15863E-03   -0.37646E-04  7730   0.241E-02    0.217E-01
RMM:   5    -0.374176102813E+03    0.19125E-03   -0.34724E-04  7699   0.233E-02    0.160E-01
RMM:   6    -0.374176001637E+03    0.10118E-03   -0.25007E-04  7692   0.201E-02    0.834E-02
RMM:   7    -0.374176024100E+03   -0.22462E-04   -0.15290E-04  7686   0.160E-02    0.855E-02
RMM:   8    -0.374175974916E+03    0.49184E-04   -0.47593E-05  6090   0.920E-03    0.360E-02
RMM:   9    -0.374175968154E+03    0.67616E-05   -0.88149E-06  4013   0.424E-03
  25 F= -.37417597E+03 E0= -.37416251E+03  d E =-.204232E-02
       N       E                     dE             d eps       ncg     rms          rms(c)
DAV:   1    -0.374171553790E+03    0.44211E-02   -0.36464E+00  7680   0.261E+00    0.296E-01
RMM:   2    -0.374180156118E+03   -0.86023E-02   -0.48368E-02  7727   0.387E-01    0.800E-01
RMM:   3    -0.374177552665E+03    0.26035E-02   -0.42711E-03  8100   0.887E-02    0.528E-01
RMM:   4    -0.374176327358E+03    0.12253E-02   -0.13571E-03  7757   0.467E-02    0.325E-01
RMM:   5    -0.374176257129E+03    0.70229E-04   -0.12099E-03  7728   0.431E-02    0.364E-01
RMM:   6    -0.374175652809E+03    0.60432E-03   -0.83298E-04  7736   0.369E-02    0.166E-01
RMM:   7    -0.374175747985E+03   -0.95176E-04   -0.69590E-04  7716   0.338E-02    0.168E-01
RMM:   8    -0.374175558401E+03    0.18958E-03   -0.23898E-04  7684   0.202E-02    0.809E-02
RMM:   9    -0.374175523295E+03    0.35106E-04   -0.33825E-05  5027   0.787E-03    0.427E-02
RMM:  10    -0.374175509958E+03    0.13337E-04   -0.24496E-05  4184   0.687E-03    0.307E-02
RMM:  11    -0.374175502229E+03    0.77283E-05   -0.15356E-05  4046   0.560E-03
  26 F= -.37417550E+03 E0= -.37416232E+03  d E =-.157640E-02
       N       E                     dE             d eps       ncg     rms          rms(c)
DAV:   1    -0.374174016951E+03    0.14930E-02   -0.21472E+00  7680   0.200E+00    0.221E-01
RMM:   2    -0.374178593318E+03   -0.45764E-02   -0.27755E-02  7727   0.294E-01    0.568E-01
RMM:   3    -0.374177333049E+03    0.12603E-02   -0.23984E-03  8182   0.668E-02    0.381E-01
RMM:   4    -0.374176801397E+03    0.53165E-03   -0.71624E-04  7750   0.338E-02    0.265E-01
RMM:   5    -0.374176690881E+03    0.11052E-03   -0.69730E-04  7723   0.326E-02    0.279E-01
RMM:   6    -0.374176349177E+03    0.34170E-03   -0.49630E-04  7733   0.284E-02    0.130E-01
RMM:   7    -0.374176394766E+03   -0.45589E-04   -0.43149E-04  7702   0.268E-02    0.123E-01
RMM:   8    -0.374176279684E+03    0.11508E-03   -0.13109E-04  7674   0.151E-02    0.544E-02
RMM:   9    -0.374176266048E+03    0.13636E-04   -0.16267E-05  4272   0.557E-03    0.350E-02
RMM:  10    -0.374176255473E+03    0.10574E-04   -0.16338E-05  4023   0.557E-03    0.189E-02
RMM:  11    -0.374176251621E+03    0.38524E-05   -0.10046E-05  3990   0.466E-03
  27 F= -.37417625E+03 E0= -.37416288E+03  d E =-.232579E-02
       N       E                     dE             d eps       ncg     rms          rms(c)
DAV:   1    -0.374177053359E+03   -0.79789E-03   -0.95288E-02  7680   0.428E-01    0.542E-02
RMM:   2    -0.374177203241E+03   -0.14988E-03   -0.11613E-03  7730   0.603E-02    0.864E-02
RMM:   3    -0.374177290183E+03   -0.86942E-04   -0.11691E-04  7773   0.144E-02    0.139E-01
RMM:   4    -0.374177198042E+03    0.92141E-04   -0.60909E-05  6732   0.989E-03    0.873E-02
RMM:   5    -0.374177160392E+03    0.37650E-04   -0.29961E-05  4673   0.764E-03    0.358E-02
RMM:   6    -0.374177157060E+03    0.33319E-05   -0.21260E-05  4196   0.670E-03
  28 F= -.37417716E+03 E0= -.37416381E+03  d E =-.905439E-03
       N       E                     dE             d eps       ncg     rms          rms(c)
DAV:   1    -0.374177623735E+03   -0.46334E-03   -0.58594E-01  7680   0.106E+00    0.138E-01
RMM:   2    -0.374178483126E+03   -0.85939E-03   -0.71640E-03  7725   0.149E-01    0.187E-01
RMM:   3    -0.374179383710E+03   -0.90058E-03   -0.76803E-04  7912   0.363E-02    0.395E-01
RMM:   4    -0.374178550322E+03    0.83339E-03   -0.40829E-04  7740   0.247E-02    0.215E-01
RMM:   5    -0.374178298560E+03    0.25176E-03   -0.20334E-04  7686   0.187E-02    0.879E-02
RMM:   6    -0.374178290440E+03    0.81207E-05   -0.11504E-04  7676   0.136E-02    0.750E-02
RMM:   7    -0.374178275642E+03    0.14798E-04   -0.55502E-05  6715   0.994E-03    0.464E-02
RMM:   8    -0.374178260900E+03    0.14742E-04   -0.16416E-05  4165   0.589E-03    0.249E-02
RMM:   9    -0.374178258354E+03    0.25460E-05   -0.49247E-06  3957   0.321E-03
  29 F= -.37417826E+03 E0= -.37416500E+03  d E =-.200673E-02
       N       E                     dE             d eps       ncg     rms          rms(c)
DAV:   1    -0.374178905311E+03   -0.64441E-03   -0.15020E-01  7680   0.522E-01    0.658E-02
RMM:   2    -0.374179116338E+03   -0.21103E-03   -0.19433E-03  7727   0.761E-02    0.977E-02
RMM:   3    -0.374179130725E+03   -0.14387E-04   -0.17179E-04  7905   0.179E-02    0.981E-02
RMM:   4    -0.374179239971E+03   -0.10925E-03   -0.71363E-05  6748   0.102E-02    0.154E-01
RMM:   5    -0.374179093269E+03    0.14670E-03   -0.67286E-05  7177   0.103E-02    0.646E-02
RMM:   6    -0.374179085381E+03    0.78877E-05   -0.35812E-05  5203   0.802E-03
  30 F= -.37417909E+03 E0= -.37416580E+03  d E =-.827027E-03
       N       E                     dE             d eps       ncg     rms          rms(c)
DAV:   1    -0.374179299801E+03   -0.20653E-03   -0.29881E-02  7680   0.234E-01    0.477E-02
RMM:   2    -0.374179430872E+03   -0.13107E-03   -0.51784E-04  7731   0.368E-02    0.115E-01
RMM:   3    -0.374179334244E+03    0.96628E-04   -0.10175E-04  7626   0.135E-02    0.460E-02
RMM:   4    -0.374179338810E+03   -0.45663E-05   -0.22376E-05  4364   0.657E-03
  31 F= -.37417934E+03 E0= -.37416616E+03  d E =-.108046E-02
       N       E                     dE             d eps       ncg     rms          rms(c)
DAV:   1    -0.374179573035E+03   -0.23879E-03   -0.36408E-02  7792   0.256E-01    0.771E-02
RMM:   2    -0.374186005992E+03   -0.64330E-02   -0.15929E-03  7737   0.537E-02    0.941E-01
RMM:   3    -0.374179498772E+03    0.65072E-02   -0.78077E-04  7678   0.328E-02    0.628E-02
RMM:   4    -0.374179588286E+03   -0.89514E-04   -0.62500E-05  6503   0.107E-02    0.329E-02
RMM:   5    -0.374179589084E+03   -0.79752E-06   -0.14653E-05  4190   0.530E-03
  32 F= -.37417959E+03 E0= -.37416635E+03  d E =-.250273E-03
       N       E                     dE             d eps       ncg     rms          rms(c)
DAV:   1    -0.374179615484E+03   -0.27198E-04   -0.10195E-01  7680   0.427E-01    0.523E-02
RMM:   2    -0.374179821996E+03   -0.20651E-03   -0.13237E-03  7734   0.647E-02    0.117E-01
RMM:   3    -0.374179810394E+03    0.11603E-04   -0.12065E-04  7771   0.147E-02    0.108E-01
RMM:   4    -0.374179779231E+03    0.31163E-04   -0.47537E-05  5871   0.867E-03    0.900E-02
RMM:   5    -0.374179729979E+03    0.49252E-04   -0.31880E-05  4641   0.791E-03    0.334E-02
RMM:   6    -0.374179730404E+03   -0.42521E-06   -0.25534E-05  4334   0.734E-03
  33 F= -.37417973E+03 E0= -.37416639E+03  d E =-.391594E-03
       N       E                     dE             d eps       ncg     rms          rms(c)
DAV:   1    -0.374179899849E+03   -0.16987E-03   -0.53986E-02  7680   0.309E-01    0.397E-02
RMM:   2    -0.374180085691E+03   -0.18584E-03   -0.77205E-04  7732   0.483E-02    0.133E-01
RMM:   3    -0.374180043426E+03    0.42265E-04   -0.10457E-04  7600   0.137E-02    0.115E-01
RMM:   4    -0.374179956975E+03    0.86451E-04   -0.21813E-05  4492   0.632E-03    0.346E-02
RMM:   5    -0.374179956647E+03    0.32821E-06   -0.11294E-05  4001   0.491E-03
  34 F= -.37417996E+03 E0= -.37416666E+03  d E =-.226243E-03
       N       E                     dE             d eps       ncg     rms          rms(c)
DAV:   1    -0.374179839887E+03    0.11709E-03   -0.34965E-01  7680   0.785E-01    0.831E-02
RMM:   2    -0.374180394154E+03   -0.55427E-03   -0.44692E-03  7728   0.120E-01    0.158E-01
RMM:   3    -0.374180450803E+03   -0.56649E-04   -0.42481E-04  7955   0.282E-02    0.184E-01
RMM:   4    -0.374180315718E+03    0.13509E-03   -0.11099E-04  7452   0.129E-02    0.130E-01
RMM:   5    -0.374180220382E+03    0.95335E-04   -0.62388E-05  6932   0.103E-02    0.588E-02
RMM:   6    -0.374180215751E+03    0.46311E-05   -0.62209E-05  7071   0.104E-02
  35 F= -.37418022E+03 E0= -.37416688E+03  d E =-.485347E-03
       N       E                     dE             d eps       ncg     rms          rms(c)
DAV:   1    -0.374180392978E+03   -0.17260E-03   -0.30864E-02  7680   0.239E-01    0.644E-02
RMM:   2    -0.374180899731E+03   -0.50675E-03   -0.78391E-04  7745   0.430E-02    0.250E-01
RMM:   3    -0.374180763977E+03    0.13575E-03   -0.25038E-04  7660   0.197E-02    0.225E-01
RMM:   4    -0.374180411490E+03    0.35249E-03   -0.73921E-05  6839   0.104E-02    0.461E-02
RMM:   5    -0.374180414209E+03   -0.27185E-05   -0.18941E-05  4276   0.606E-03
  36 F= -.37418041E+03 E0= -.37416697E+03  d E =-.198457E-03
       N       E                     dE             d eps       ncg     rms          rms(c)
DAV:   1    -0.374180449693E+03   -0.38203E-04   -0.27654E-01  7680   0.708E-01    0.764E-02
RMM:   2    -0.374180927601E+03   -0.47791E-03   -0.34566E-03  7727   0.105E-01    0.167E-01
RMM:   3    -0.374180815668E+03    0.11193E-03   -0.29572E-04  8030   0.240E-02    0.101E-01
RMM:   4    -0.374180937421E+03   -0.12175E-03   -0.87145E-05  7129   0.114E-02    0.167E-01
RMM:   5    -0.374180771560E+03    0.16586E-03   -0.78851E-05  7369   0.111E-02    0.833E-02
RMM:   6    -0.374180747664E+03    0.23896E-04   -0.65734E-05  7127   0.104E-02    0.505E-02
RMM:   7    -0.374180752558E+03   -0.48941E-05   -0.59383E-05  6903   0.101E-02
  37 F= -.37418075E+03 E0= -.37416734E+03  d E =-.536806E-03
       N       E                     dE             d eps       ncg     rms          rms(c)
DAV:   1    -0.374180856742E+03   -0.10908E-03   -0.12210E-02  7728   0.150E-01    0.285E-02
RMM:   2    -0.374181163717E+03   -0.30698E-03   -0.25362E-04  7695   0.255E-02    0.205E-01
RMM:   3    -0.374180895374E+03    0.26834E-03   -0.56809E-05  6352   0.955E-03    0.733E-02
RMM:   4    -0.374180866991E+03    0.28382E-04   -0.16175E-05  4253   0.568E-03    0.224E-02
RMM:   5    -0.374180865287E+03    0.17042E-05   -0.64465E-06  3885   0.360E-03
  38 F= -.37418087E+03 E0= -.37416741E+03  d E =-.112730E-03
       N       E                     dE             d eps       ncg     rms          rms(c)
DAV:   1    -0.374180961806E+03   -0.94814E-04   -0.66452E-02  7680   0.348E-01    0.404E-02
RMM:   2    -0.374181068376E+03   -0.10657E-03   -0.85754E-04  7728   0.524E-02    0.697E-02
RMM:   3    -0.374181086333E+03   -0.17957E-04   -0.78764E-05  7378   0.122E-02    0.873E-02
RMM:   4    -0.374181049049E+03    0.37284E-04   -0.19602E-05  4388   0.603E-03    0.478E-02
RMM:   5    -0.374181042121E+03    0.69285E-05   -0.19816E-05  4233   0.633E-03
  39 F= -.37418104E+03 E0= -.37416759E+03  d E =-.289563E-03
       N       E                     dE             d eps       ncg     rms          rms(c)
DAV:   1    -0.374181140504E+03   -0.91455E-04   -0.58573E-03  7760   0.106E-01    0.269E-02
RMM:   2    -0.374181284992E+03   -0.14449E-03   -0.14892E-04  7663   0.188E-02    0.140E-01
RMM:   3    -0.374181195581E+03    0.89411E-04   -0.41577E-05  5578   0.831E-03    0.873E-02
RMM:   4    -0.374181143019E+03    0.52562E-04   -0.12392E-05  4151   0.488E-03    0.139E-02
RMM:   5    -0.374181146409E+03   -0.33897E-05   -0.56831E-06  3917   0.329E-03
  40 F= -.37418115E+03 E0= -.37416770E+03  d E =-.104288E-03
       N       E                     dE             d eps       ncg     rms          rms(c)
DAV:   1    -0.374181357838E+03   -0.21482E-03   -0.52418E-02  7680   0.313E-01    0.323E-02
RMM:   2    -0.374181429408E+03   -0.71570E-04   -0.65320E-04  7708   0.458E-02    0.467E-02
RMM:   3    -0.374181456283E+03   -0.26875E-04   -0.56987E-05  6427   0.107E-02    0.774E-02
RMM:   4    -0.374181429071E+03    0.27212E-04   -0.16761E-05  4209   0.578E-03    0.486E-02
RMM:   5    -0.374181417724E+03    0.11348E-04   -0.93421E-06  4015   0.459E-03    0.252E-02
RMM:   6    -0.374181416168E+03    0.15558E-05   -0.87803E-06  3921   0.443E-03
  41 F= -.37418142E+03 E0= -.37416798E+03  d E =-.374047E-03
       N       E                     dE             d eps       ncg     rms          rms(c)
DAV:   1    -0.374181503885E+03   -0.86161E-04   -0.53244E-03  7792   0.998E-02    0.230E-02
RMM:   2    -0.374181549079E+03   -0.45194E-04   -0.11876E-04  7659   0.173E-02    0.700E-02
RMM:   3    -0.374181511860E+03    0.37219E-04   -0.26730E-05  4572   0.720E-03    0.283E-02
RMM:   4    -0.374181512860E+03   -0.10003E-05   -0.52689E-06  3984   0.326E-03
  42 F= -.37418151E+03 E0= -.37416810E+03  d E =-.966920E-04
       N       E                     dE             d eps       ncg     rms          rms(c)
DAV:   1    -0.374181653435E+03   -0.14157E-03   -0.47943E-02  7680   0.297E-01    0.344E-02
RMM:   2    -0.374181772186E+03   -0.11875E-03   -0.60316E-04  7726   0.440E-02    0.101E-01
RMM:   3    -0.374181723798E+03    0.48387E-04   -0.45521E-05  5601   0.975E-03    0.539E-02
RMM:   4    -0.374181716312E+03    0.74861E-05   -0.16188E-05  4171   0.602E-03
  43 F= -.37418172E+03 E0= -.37416829E+03  d E =-.300144E-03
       N       E                     dE             d eps       ncg     rms          rms(c)
DAV:   1    -0.374181800098E+03   -0.76300E-04   -0.11697E-02  7680   0.147E-01    0.406E-02
RMM:   2    -0.374182029537E+03   -0.22944E-03   -0.31700E-04  7696   0.271E-02    0.184E-01
RMM:   3    -0.374181866951E+03    0.16259E-03   -0.10061E-04  7608   0.129E-02    0.913E-02
RMM:   4    -0.374181812383E+03    0.54568E-04   -0.14424E-05  4255   0.495E-03    0.327E-02
RMM:   5    -0.374181808272E+03    0.41109E-05   -0.68743E-06  3887   0.368E-03
  44 F= -.37418181E+03 E0= -.37416839E+03  d E =-.919593E-04
       N       E                     dE             d eps       ncg     rms          rms(c)
DAV:   1    -0.374181856693E+03   -0.44310E-04   -0.14967E-02  7680   0.165E-01    0.198E-02
RMM:   2    -0.374181886767E+03   -0.30074E-04   -0.19233E-04  7704   0.245E-02    0.435E-02
RMM:   3    -0.374181886340E+03    0.42733E-06   -0.14406E-05  4071   0.569E-03
  45 F= -.37418189E+03 E0= -.37416847E+03  d E =-.170027E-03
       N       E                     dE             d eps       ncg     rms          rms(c)
DAV:   1    -0.374181966208E+03   -0.79440E-04   -0.32224E-03  7696   0.806E-02    0.320E-02
RMM:   2    -0.374182623086E+03   -0.65688E-03   -0.18006E-04  7651   0.179E-02    0.304E-01
RMM:   3    -0.374181979718E+03    0.64337E-03   -0.97247E-05  7160   0.116E-02    0.671E-02
RMM:   4    -0.374181964978E+03    0.14740E-04   -0.12297E-05  4227   0.493E-03    0.157E-02
RMM:   5    -0.374181966327E+03   -0.13481E-05   -0.52515E-06  3984   0.311E-03
  46 F= -.37418197E+03 E0= -.37416853E+03  d E =-.799867E-04
       N       E                     dE             d eps       ncg     rms          rms(c)
DAV:   1    -0.374182196596E+03   -0.23162E-03   -0.28687E-02  7680   0.235E-01    0.249E-02
RMM:   2    -0.374182271388E+03   -0.74793E-04   -0.31997E-04  7682   0.319E-02    0.812E-02
RMM:   3    -0.374182231775E+03    0.39613E-04   -0.23893E-05  4270   0.745E-03    0.345E-02
RMM:   4    -0.374182232013E+03   -0.23831E-06   -0.12122E-05  4117   0.527E-03
  47 F= -.37418223E+03 E0= -.37416885E+03  d E =-.345673E-03
       N       E                     dE             d eps       ncg     rms          rms(c)
DAV:   1    -0.374182582726E+03   -0.35095E-03   -0.11510E-01  7680   0.470E-01    0.543E-02
RMM:   2    -0.374182758037E+03   -0.17531E-03   -0.12882E-03  7724   0.641E-02    0.988E-02
RMM:   3    -0.374182722874E+03    0.35163E-04   -0.13265E-04  7704   0.161E-02    0.645E-02
RMM:   4    -0.374182818235E+03   -0.95361E-04   -0.43812E-05  5650   0.857E-03    0.132E-01
RMM:   5    -0.374182710737E+03    0.10750E-03   -0.25924E-05  4616   0.675E-03    0.489E-02
RMM:   6    -0.374182699851E+03    0.10885E-04   -0.25041E-05  4400   0.721E-03    0.259E-02
RMM:   7    -0.374182702177E+03   -0.23261E-05   -0.16538E-05  4026   0.603E-03
  48 F= -.37418270E+03 E0= -.37416932E+03  d E =-.815838E-03
       N       E                     dE             d eps       ncg     rms          rms(c)
DAV:   1    -0.374182927352E+03   -0.22750E-03   -0.45846E-01  7680   0.937E-01    0.897E-02
RMM:   2    -0.374183446111E+03   -0.51876E-03   -0.50361E-03  7724   0.127E-01    0.964E-02
RMM:   3    -0.374183814500E+03   -0.36839E-03   -0.44003E-04  8020   0.288E-02    0.236E-01
RMM:   4    -0.374183616690E+03    0.19781E-03   -0.15864E-04  7646   0.152E-02    0.177E-01
RMM:   5    -0.374183422375E+03    0.19431E-03   -0.86397E-05  7600   0.120E-02    0.592E-02
RMM:   6    -0.374183424920E+03   -0.25441E-05   -0.62930E-05  7024   0.102E-02
  49 F= -.37418342E+03 E0= -.37417004E+03  d E =-.153858E-02
       N       E                     dE             d eps       ncg     rms          rms(c)
DAV:   1    -0.374182038624E+03    0.13838E-02   -0.18350E+00  7680   0.188E+00    0.182E-01
RMM:   2    -0.374184104338E+03   -0.20657E-02   -0.20090E-02  7721   0.254E-01    0.188E-01
RMM:   3    -0.374184681995E+03   -0.57766E-03   -0.17239E-03  7928   0.580E-02    0.314E-01
RMM:   4    -0.374185720539E+03   -0.10385E-02   -0.62651E-04  7771   0.297E-02    0.498E-01
RMM:   5    -0.374183988778E+03    0.17318E-02   -0.35769E-04  7687   0.236E-02    0.125E-01
RMM:   6    -0.374184016128E+03   -0.27350E-04   -0.22924E-04  7690   0.192E-02    0.112E-01
RMM:   7    -0.374183949356E+03    0.66772E-04   -0.17924E-04  7683   0.178E-02    0.439E-02
RMM:   8    -0.374183937733E+03    0.11623E-04   -0.19767E-05  4271   0.638E-03    0.254E-02
RMM:   9    -0.374183935240E+03    0.24935E-05   -0.73119E-06  4019   0.401E-03
  50 F= -.37418394E+03 E0= -.37417058E+03  d E =-.204890E-02
       N       E                     dE             d eps       ncg     rms          rms(c)
DAV:   1    -0.374183982747E+03   -0.45014E-04   -0.27624E-03  7824   0.728E-02    0.138E-02
RMM:   2    -0.374184000684E+03   -0.17937E-04   -0.46529E-05  6028   0.114E-02    0.458E-02
RMM:   3    -0.374183997993E+03    0.26904E-05   -0.10343E-05  4049   0.490E-03
  51 F= -.37418400E+03 E0= -.37417064E+03  d E =-.627538E-04
       N       E                     dE             d eps       ncg     rms          rms(c)
DAV:   1    -0.374184113969E+03   -0.11329E-03   -0.25185E-02  7696   0.219E-01    0.266E-02
RMM:   2    -0.374184210449E+03   -0.96480E-04   -0.29056E-04  7675   0.301E-02    0.101E-01
RMM:   3    -0.374184157383E+03    0.53066E-04   -0.29638E-05  4620   0.791E-03    0.529E-02
RMM:   4    -0.374184145286E+03    0.12096E-04   -0.12454E-05  4139   0.526E-03    0.310E-02
RMM:   5    -0.374184142439E+03    0.28473E-05   -0.53012E-06  3902   0.369E-03
  52 F= -.37418414E+03 E0= -.37417075E+03  d E =-.207200E-03
       N       E                     dE             d eps       ncg     rms          rms(c)
DAV:   1    -0.374184316952E+03   -0.17167E-03   -0.10035E-01  7680   0.437E-01    0.484E-02
RMM:   2    -0.374184484710E+03   -0.16776E-03   -0.10980E-03  7720   0.588E-02    0.970E-02
RMM:   3    -0.374184530963E+03   -0.46254E-04   -0.11494E-04  7589   0.145E-02    0.128E-01
RMM:   4    -0.374184438975E+03    0.91989E-04   -0.35676E-05  5100   0.773E-03    0.600E-02
RMM:   5    -0.374184423038E+03    0.15936E-04   -0.19845E-05  4211   0.675E-03    0.355E-02
RMM:   6    -0.374184421580E+03    0.14586E-05   -0.13889E-05  4181   0.553E-03
  53 F= -.37418442E+03 E0= -.37417102E+03  d E =-.486340E-03
       N       E                     dE             d eps       ncg     rms          rms(c)
DAV:   1    -0.374184421595E+03    0.14434E-05   -0.40082E-01  7680   0.874E-01    0.840E-02
RMM:   2    -0.374184848441E+03   -0.42685E-03   -0.42835E-03  7718   0.117E-01    0.725E-02
RMM:   3    -0.374185010078E+03   -0.16164E-03   -0.36448E-04  7887   0.267E-02    0.160E-01
RMM:   4    -0.374185099405E+03   -0.89327E-04   -0.11159E-04  7548   0.132E-02    0.196E-01
RMM:   5    -0.374184843860E+03    0.25555E-03   -0.59907E-05  6516   0.956E-03    0.530E-02
RMM:   6    -0.374184855729E+03   -0.11869E-04   -0.59872E-05  6812   0.101E-02    0.519E-02
RMM:   7    -0.374184837779E+03    0.17950E-04   -0.33501E-05  4897   0.815E-03    0.261E-02
RMM:   8    -0.374184833869E+03    0.39100E-05   -0.76247E-06  3942   0.433E-03
  54 F= -.37418483E+03 E0= -.37417146E+03  d E =-.898629E-03
       N       E                     dE             d eps       ncg     rms          rms(c)
DAV:   1    -0.374183413067E+03    0.14247E-02   -0.16023E+00  7680   0.175E+00    0.165E-01
RMM:   2    -0.374185127677E+03   -0.17146E-02   -0.17194E-02  7714   0.234E-01    0.141E-01
RMM:   3    -0.374186323511E+03   -0.11958E-02   -0.14726E-03  7958   0.533E-02    0.420E-01
RMM:   4    -0.374185873107E+03    0.45040E-03   -0.48014E-04  7733   0.264E-02    0.338E-01
RMM:   5    -0.374185094164E+03    0.77894E-03   -0.25701E-04  7687   0.203E-02    0.930E-02
RMM:   6    -0.374185130566E+03   -0.36402E-04   -0.23460E-04  7684   0.194E-02    0.975E-02
RMM:   7    -0.374185078103E+03    0.52463E-04   -0.15231E-04  7681   0.162E-02    0.530E-02
RMM:   8    -0.374185058484E+03    0.19619E-04   -0.26263E-05  4461   0.718E-03    0.245E-02
RMM:   9    -0.374185056438E+03    0.20463E-05   -0.70612E-06  3971   0.381E-03
  55 F= -.37418506E+03 E0= -.37417168E+03  d E =-.112120E-02
       N       E                     dE             d eps       ncg     rms          rms(c)
DAV:   1    -0.374185319789E+03   -0.26130E-03   -0.36918E-02  7808   0.258E-01    0.261E-02
RMM:   2    -0.374185425445E+03   -0.10566E-03   -0.48746E-04  7721   0.393E-02    0.955E-02
RMM:   3    -0.374185369469E+03    0.55976E-04   -0.33396E-05  4839   0.862E-03    0.378E-02
RMM:   4    -0.374185377761E+03   -0.82918E-05   -0.16724E-05  4198   0.611E-03
  56 F= -.37418538E+03 E0= -.37417197E+03  d E =-.321323E-03
       N       E                     dE             d eps       ncg     rms          rms(c)
DAV:   1    -0.374185502888E+03   -0.13342E-03   -0.20884E-01  7680   0.614E-01    0.706E-02
RMM:   2    -0.374185895863E+03   -0.39297E-03   -0.26054E-03  7727   0.921E-02    0.149E-01
RMM:   3    -0.374186098163E+03   -0.20230E-03   -0.29432E-04  7882   0.224E-02    0.230E-01
RMM:   4    -0.374185776329E+03    0.32183E-03   -0.76026E-05  7263   0.111E-02    0.944E-02
RMM:   5    -0.374185757239E+03    0.19089E-04   -0.47979E-05  6080   0.927E-03    0.699E-02
RMM:   6    -0.374185745250E+03    0.11989E-04   -0.44725E-05  5868   0.910E-03    0.545E-02
RMM:   7    -0.374185740903E+03    0.43471E-05   -0.34893E-05  4809   0.842E-03
  57 F= -.37418574E+03 E0= -.37417227E+03  d E =-.684465E-03
       N       E                     dE             d eps       ncg     rms          rms(c)
DAV:   1    -0.374185894200E+03   -0.14895E-03   -0.62758E-02  7680   0.334E-01    0.348E-02
RMM:   2    -0.374186011875E+03   -0.11768E-03   -0.84696E-04  7746   0.514E-02    0.861E-02
RMM:   3    -0.374185981856E+03    0.30019E-04   -0.80302E-05  7527   0.124E-02    0.516E-02
RMM:   4    -0.374186006166E+03   -0.24310E-04   -0.18662E-05  4389   0.579E-03    0.803E-02
RMM:   5    -0.374185964551E+03    0.41615E-04   -0.97114E-06  4018   0.459E-03    0.220E-02
RMM:   6    -0.374185964878E+03   -0.32660E-06   -0.68652E-06  3923   0.399E-03
  58 F= -.37418596E+03 E0= -.37417252E+03  d E =-.223975E-03
       N       E                     dE             d eps       ncg     rms          rms(c)
DAV:   1    -0.374185986452E+03   -0.21901E-04   -0.41940E-02  7696   0.273E-01    0.320E-02
RMM:   2    -0.374186081816E+03   -0.95364E-04   -0.55393E-04  7723   0.416E-02    0.892E-02
RMM:   3    -0.374186038121E+03    0.43695E-04   -0.57754E-05  6558   0.106E-02    0.396E-02
RMM:   4    -0.374186050732E+03   -0.12611E-04   -0.11572E-05  4092   0.480E-03    0.561E-02
RMM:   5    -0.374186034609E+03    0.16123E-04   -0.90717E-06  4032   0.430E-03    0.317E-02
RMM:   6    -0.374186029763E+03    0.48467E-05   -0.57303E-06  3908   0.371E-03
  59 F= -.37418603E+03 E0= -.37417258E+03  d E =-.288860E-03
       N       E                     dE             d eps       ncg     rms          rms(c)
DAV:   1    -0.374186104622E+03   -0.70012E-04   -0.38162E-02  7728   0.260E-01    0.284E-02
RMM:   2    -0.374186211105E+03   -0.10648E-03   -0.52128E-04  7709   0.400E-02    0.986E-02
RMM:   3    -0.374186150270E+03    0.60836E-04   -0.55115E-05  6464   0.104E-02    0.255E-02
RMM:   4    -0.374186162653E+03   -0.12384E-04   -0.10494E-05  4057   0.472E-03    0.508E-02
RMM:   5    -0.374186146300E+03    0.16353E-04   -0.44667E-06  3963   0.305E-03    0.182E-02
RMM:   6    -0.374186145069E+03    0.12311E-05   -0.35658E-06  3875   0.284E-03
  60 F= -.37418615E+03 E0= -.37417267E+03  d E =-.115306E-03
       N       E                     dE             d eps       ncg     rms          rms(c)
DAV:   1    -0.374186013866E+03    0.13243E-03   -0.15816E-01  7680   0.528E-01    0.455E-02
RMM:   2    -0.374186262533E+03   -0.24867E-03   -0.19342E-03  7721   0.794E-02    0.108E-01
RMM:   3    -0.374186206168E+03    0.56365E-04   -0.16028E-04  7993   0.173E-02    0.469E-02
RMM:   4    -0.374186261688E+03   -0.55520E-04   -0.28251E-05  4775   0.708E-03    0.101E-01
RMM:   5    -0.374186195563E+03    0.66125E-04   -0.18453E-05  4304   0.600E-03    0.447E-02
RMM:   6    -0.374186188340E+03    0.72230E-05   -0.16751E-05  4178   0.595E-03
  61 F= -.37418619E+03 E0= -.37417269E+03  d E =-.158577E-03
       N       E                     dE             d eps       ncg     rms          rms(c)
DAV:   1    -0.374186185336E+03    0.10227E-04   -0.41391E-02  7680   0.269E-01    0.416E-02
RMM:   2    -0.374186400422E+03   -0.21509E-03   -0.66155E-04  7737   0.438E-02    0.155E-01
RMM:   3    -0.374186326820E+03    0.73602E-04   -0.97469E-05  7576   0.128E-02    0.120E-01
RMM:   4    -0.374186237000E+03    0.89819E-04   -0.35398E-05  5120   0.763E-03    0.526E-02
RMM:   5    -0.374186225085E+03    0.11915E-04   -0.11549E-05  4015   0.492E-03    0.267E-02
RMM:   6    -0.374186225243E+03   -0.15800E-06   -0.91688E-06  3933   0.436E-03
  62 F= -.37418623E+03 E0= -.37417273E+03  d E =-.369030E-04
       N       E                     dE             d eps       ncg     rms          rms(c)
DAV:   1    -0.374186228716E+03   -0.36310E-05   -0.25444E-03  7824   0.670E-02    0.130E-02
RMM:   2    -0.374186279614E+03   -0.50898E-04   -0.56129E-05  6561   0.123E-02    0.803E-02
RMM:   3    -0.374186242661E+03    0.36953E-04   -0.12027E-05  4048   0.490E-03    0.401E-02
RMM:   4    -0.374186232317E+03    0.10344E-04   -0.52599E-06  3869   0.338E-03    0.109E-02
RMM:   5    -0.374186231800E+03    0.51683E-06   -0.12316E-06  3790   0.167E-03
  63 F= -.37418623E+03 E0= -.37417277E+03  d E =-.434603E-04
