<?xml version="1.0" encoding="ISO-8859-1"?>
<modeling>
 <generator>
  <i name="program" type="string">vasp </i>
  <i name="version" type="string">5.4.4.18Apr17-6-g9f103f2a35  </i>
  <i name="subversion" type="string">(build May 23 2022 10:35:18) complex            parallel </i>
  <i name="platform" type="string">IFC18_impi </i>
  <i name="date" type="string">2023 06 20 </i>
  <i name="time" type="string">00:55:34 </i>
 </generator>
 <incar>
  <i type="string" name="SYSTEM"> Pt</i>
  <i type="int" name="ISTART">     0</i>
  <i type="string" name="PREC">med   normal | accurate</i>
  <i type="string" name="ALGO">  Fast    Normal, Fast, Very_Fast</i>
  <i type="int" name="ICHARG">     2</i>
  <i type="int" name="INIWAV">     1</i>
  <i type="int" name="NELM">   100</i>
  <i type="int" name="IBRION">     2</i>
  <i name="EDIFF">      0.00001000</i>
  <i type="int" name="NSW">   200</i>
  <i type="int" name="ISIF">     1</i>
  <i type="int" name="ISYM">     0</i>
  <i name="ENCUT">    400.00000000</i>
  <i type="string" name="LREAL">  Auto     real-space projection (.FALSE</i>
  <i type="int" name="ISMEAR">     1</i>
  <i name="SIGMA">      0.10000000</i>
  <i type="int" name="NWRITE">     2</i>
  <i type="logical" name="LWAVE"> F  </i>
  <i type="logical" name="LCHARG"> F  </i>
  <i type="logical" name="LAECHG"> F  </i>
  <v type="int" name="KPOINT_BSE">    -1     0     0     0</v>
  <i type="int" name="NELM">   100</i>
 </incar>
 <structure name="primitive_cell" >
  <crystal>
   <varray name="basis" >
    <v>      11.21440000       0.00000000       0.00000000 </v>
    <v>       5.60720000       9.71195529       0.00000000 </v>
    <v>       0.00000000       0.00000000      31.44560000 </v>
   </varray>
   <i name="volume">   3424.85826052 </i>
   <varray name="rec_basis" >
    <v>       0.08917107      -0.05148294       0.00000000 </v>
    <v>       0.00000000       0.10296588       0.00000000 </v>
    <v>       0.00000000       0.00000000       0.03180095 </v>
   </varray>
  </crystal>
  <varray name="positions" >
   <v>       0.08333000       0.33333000       0.39081000 </v>
   <v>       0.16667000       0.16667000       0.46360000 </v>
   <v>      -0.08333000       0.41667000       0.46360000 </v>
   <v>       0.16667000       0.41667000       0.46360000 </v>
   <v>       0.33333000       0.08333000       0.39081000 </v>
   <v>      -0.16667000      -0.41667000       0.39081000 </v>
   <v>       0.33333000       0.33333000       0.39081000 </v>
   <v>      -0.16667000       0.33333000       0.39081000 </v>
   <v>       0.08333000       0.08333000       0.39081000 </v>
   <v>       0.08333000      -0.41667000       0.39081000 </v>
   <v>      -0.08333000       0.16667000       0.46360000 </v>
   <v>       0.41667000       0.16667000       0.46360000 </v>
   <v>      -0.08333000      -0.33333000       0.46360000 </v>
   <v>       0.25117183       0.25018498      -0.46458108 </v>
   <v>       0.00012859       0.49969052      -0.46432496 </v>
   <v>      -0.00240840       0.25032683      -0.46451963 </v>
   <v>       0.16667000      -0.08333000       0.46360000 </v>
   <v>      -0.33333000       0.41667000       0.46360000 </v>
   <v>       0.41667000      -0.08333000       0.46360000 </v>
   <v>      -0.33333000      -0.33333000       0.46360000 </v>
   <v>       0.33333000      -0.16667000       0.39081000 </v>
   <v>      -0.41667000      -0.41667000       0.39081000 </v>
   <v>      -0.41667000       0.08333000       0.39081000 </v>
   <v>      -0.16667000       0.08333000       0.39081000 </v>
   <v>       0.33333000      -0.41667000       0.39081000 </v>
   <v>      -0.16667000      -0.16667000       0.39081000 </v>
   <v>       0.16667000      -0.33333000       0.46360000 </v>
   <v>       0.41667000       0.41667000       0.46360000 </v>
   <v>       0.24971507       0.00037990      -0.46435909 </v>
   <v>       0.24928521      -0.49979331      -0.46420853 </v>
   <v>      -0.24996247      -0.49982900      -0.46423926 </v>
   <v>       0.08333000      -0.16667000       0.39081000 </v>
   <v>      -0.41667000       0.33333000       0.39081000 </v>
   <v>      -0.41667000      -0.16667000       0.39081000 </v>
   <v>      -0.49991453       0.00187327      -0.46450245 </v>
   <v>      -0.00274690       0.00231418      -0.46446092 </v>
   <v>       0.00049983      -0.25003469      -0.46427745 </v>
   <v>      -0.25043056      -0.24984987      -0.46428198 </v>
   <v>      -0.33333000       0.16667000       0.46360000 </v>
   <v>      -0.08333000      -0.08333000       0.46360000 </v>
   <v>      -0.33333000      -0.08333000       0.46360000 </v>
   <v>      -0.49931389       0.25251373      -0.46132534 </v>
   <v>      -0.25489376       0.25315146      -0.46088561 </v>
   <v>       0.08320776       0.33282012      -0.39143387 </v>
   <v>       0.41667000      -0.33333000       0.46360000 </v>
   <v>       0.25026434      -0.24998036      -0.46489016 </v>
   <v>       0.49996554      -0.25043952      -0.46462171 </v>
   <v>       0.32720012       0.33366156      -0.39051393 </v>
   <v>       0.33314546       0.08372823      -0.39124674 </v>
   <v>      -0.16690853      -0.41615996      -0.39120930 </v>
   <v>       0.08139585       0.08439974      -0.39109250 </v>
   <v>       0.08143313      -0.41545922      -0.39100460 </v>
   <v>      -0.16398590       0.33444256      -0.39037876 </v>
   <v>      -0.49978273       0.49869409      -0.46152453 </v>
   <v>      -0.25052116       0.00072045      -0.46444138 </v>
   <v>       0.33232638      -0.16431588      -0.39114739 </v>
   <v>       0.32469634      -0.40802064      -0.39111649 </v>
   <v>      -0.16777400      -0.16487759      -0.39124647 </v>
   <v>      -0.41668565      -0.41046399      -0.39071673 </v>
   <v>      -0.41647028       0.08099106      -0.39052978 </v>
   <v>      -0.16570482       0.08180393      -0.39039652 </v>
   <v>      -0.41767349      -0.16563946      -0.39148106 </v>
   <v>       0.08220236      -0.16466960      -0.39134312 </v>
   <v>      -0.42007980       0.33676226      -0.38112496 </v>
   <v>      -0.45895156       0.37869381      -0.32432367 </v>
  </varray>
 </structure>
 <varray name="primitive_index" >
  <v type="int" >        1 </v>
  <v type="int" >        7 </v>
  <v type="int" >       38 </v>
  <v type="int" >        8 </v>
  <v type="int" >        4 </v>
  <v type="int" >       52 </v>
  <v type="int" >        3 </v>
  <v type="int" >       35 </v>
  <v type="int" >        2 </v>
  <v type="int" >       18 </v>
  <v type="int" >       37 </v>
  <v type="int" >        5 </v>
  <v type="int" >       53 </v>
  <v type="int" >       10 </v>
  <v type="int" >       59 </v>
  <v type="int" >       44 </v>
  <v type="int" >       24 </v>
  <v type="int" >       40 </v>
  <v type="int" >       22 </v>
  <v type="int" >       55 </v>
  <v type="int" >       19 </v>
  <v type="int" >       50 </v>
  <v type="int" >       34 </v>
  <v type="int" >       36 </v>
  <v type="int" >       20 </v>
  <v type="int" >       51 </v>
  <v type="int" >       23 </v>
  <v type="int" >        6 </v>
  <v type="int" >        9 </v>
  <v type="int" >       25 </v>
  <v type="int" >       57 </v>
  <v type="int" >       17 </v>
  <v type="int" >       33 </v>
  <v type="int" >       49 </v>
  <v type="int" >       11 </v>
  <v type="int" >       43 </v>
  <v type="int" >       60 </v>
  <v type="int" >       58 </v>
  <v type="int" >       39 </v>
  <v type="int" >       54 </v>
  <v type="int" >       56 </v>
  <v type="int" >       12 </v>
  <v type="int" >       42 </v>
  <v type="int" >       13 </v>
  <v type="int" >       21 </v>
  <v type="int" >       26 </v>
  <v type="int" >       28 </v>
  <v type="int" >       15 </v>
  <v type="int" >       16 </v>
  <v type="int" >       64 </v>
  <v type="int" >       14 </v>
  <v type="int" >       30 </v>
  <v type="int" >       47 </v>
  <v type="int" >       27 </v>
  <v type="int" >       41 </v>
  <v type="int" >       31 </v>
  <v type="int" >       32 </v>
  <v type="int" >       63 </v>
  <v type="int" >       62 </v>
  <v type="int" >       46 </v>
  <v type="int" >       48 </v>
  <v type="int" >       61 </v>
  <v type="int" >       29 </v>
  <v type="int" >       45 </v>
  <v type="int" >       65 </v>
 </varray>
 <kpoints>
  <generation param="Gamma">
   <v type="int" name="divisions">       4        4        1 </v>
   <v name="usershift">      0.00000000       0.00000000       0.00000000 </v>
   <v name="genvec1">      0.25000000      -0.00000000       0.00000000 </v>
   <v name="genvec2">      0.00000000       0.25000000       0.00000000 </v>
   <v name="genvec3">      0.00000000       0.00000000       1.00000000 </v>
   <v name="shift">      0.00000000       0.00000000       0.00000000 </v>
  </generation>
  <varray name="kpointlist" >
   <v>       0.00000000       0.00000000       0.00000000 </v>
   <v>       0.25000000       0.00000000       0.00000000 </v>
   <v>       0.50000000       0.00000000       0.00000000 </v>
   <v>       0.00000000       0.25000000       0.00000000 </v>
   <v>       0.25000000       0.25000000       0.00000000 </v>
   <v>       0.50000000       0.25000000       0.00000000 </v>
   <v>      -0.25000000       0.25000000       0.00000000 </v>
   <v>       0.00000000       0.50000000       0.00000000 </v>
   <v>       0.25000000       0.50000000       0.00000000 </v>
   <v>       0.50000000       0.50000000       0.00000000 </v>
  </varray>
  <varray name="weights" >
   <v>       0.06250000 </v>
   <v>       0.12500000 </v>
   <v>       0.06250000 </v>
   <v>       0.12500000 </v>
   <v>       0.12500000 </v>
   <v>       0.12500000 </v>
   <v>       0.12500000 </v>
   <v>       0.06250000 </v>
   <v>       0.12500000 </v>
   <v>       0.06250000 </v>
  </varray>
 </kpoints>
 <parameters>
  <separator name="general" >
   <i type="string" name="SYSTEM">Pt</i>
   <i type="logical" name="LCOMPAT"> F  </i>
  </separator>
  <separator name="electronic" >
   <i type="string" name="PREC">med</i>
   <i name="ENMAX">    400.00000000</i>
   <i name="ENAUG">    400.00000000</i>
   <i name="EDIFF">      0.00001000</i>
   <i type="int" name="IALGO">    68</i>
   <i type="int" name="IWAVPR">    11</i>
   <i type="int" name="NBANDS">   384</i>
   <i name="NELECT">    641.00000000</i>
   <i type="int" name="TURBO">     0</i>
   <i type="int" name="IRESTART">     0</i>
   <i type="int" name="NREBOOT">     0</i>
   <i type="int" name="NMIN">     0</i>
   <i name="EREF">      0.00000000</i>
   <separator name="electronic smearing" >
    <i type="int" name="ISMEAR">     1</i>
    <i name="SIGMA">      0.10000000</i>
    <i name="KSPACING">      0.50000000</i>
    <i type="logical" name="KGAMMA"> T  </i>
   </separator>
   <separator name="electronic projectors" >
    <i type="logical" name="LREAL"> T  </i>
    <v name="ROPT">     -0.00200000     -0.00200000</v>
    <i type="int" name="LMAXPAW">  -100</i>
    <i type="int" name="LMAXMIX">     2</i>
    <i type="logical" name="NLSPLINE"> F  </i>
   </separator>
   <separator name="electronic startup" >
    <i type="int" name="ISTART">     0</i>
    <i type="int" name="ICHARG">     2</i>
    <i type="int" name="INIWAV">     1</i>
   </separator>
   <separator name="electronic spin" >
    <i type="int" name="ISPIN">     1</i>
    <i type="logical" name="LNONCOLLINEAR"> F  </i>
    <v name="MAGMOM">      1.00000000      1.00000000      1.00000000      1.00000000      1.00000000      1.00000000      1.00000000      1.00000000      1.00000000      1.00000000      1.00000000      1.00000000      1.00000000      1.00000000      1.00000000      1.00000000      1.00000000      1.00000000      1.00000000      1.00000000
      1.00000000      1.00000000      1.00000000      1.00000000      1.00000000      1.00000000      1.00000000      1.00000000      1.00000000      1.00000000      1.00000000      1.00000000      1.00000000      1.00000000      1.00000000      1.00000000      1.00000000      1.00000000      1.00000000      1.00000000
      1.00000000      1.00000000      1.00000000      1.00000000      1.00000000      1.00000000      1.00000000      1.00000000      1.00000000      1.00000000      1.00000000      1.00000000      1.00000000      1.00000000      1.00000000      1.00000000      1.00000000      1.00000000      1.00000000      1.00000000
      1.00000000      1.00000000      1.00000000      1.00000000      1.00000000</v>
    <i name="NUPDOWN">     -1.00000000</i>
    <i type="logical" name="LSORBIT"> F  </i>
    <v name="SAXIS">      0.00000000      0.00000000      1.00000000</v>
    <i type="logical" name="LSPIRAL"> F  </i>
    <v name="QSPIRAL">      0.00000000      0.00000000      0.00000000</v>
    <i type="logical" name="LZEROZ"> F  </i>
   </separator>
   <separator name="electronic exchange-correlation" >
    <i type="logical" name="LASPH"> F  </i>
    <i type="logical" name="LMETAGGA"> F  </i>
   </separator>
   <separator name="electronic convergence" >
    <i type="int" name="NELM">   100</i>
    <i type="int" name="NELMDL">    -5</i>
    <i type="int" name="NELMIN">     2</i>
    <i name="ENINI">    400.00000000</i>
    <separator name="electronic convergence detail" >
     <i type="logical" name="LDIAG"> T  </i>
     <i type="logical" name="LSUBROT"> F  </i>
     <i name="WEIMIN">      0.00100000</i>
     <i name="EBREAK">      0.00000001</i>
     <i name="DEPER">      0.30000000</i>
     <i type="int" name="NRMM">     4</i>
     <i name="TIME">      0.40000000</i>
    </separator>
   </separator>
   <separator name="electronic mixer" >
    <i name="AMIX">      0.40000000</i>
    <i name="BMIX">      1.00000000</i>
    <i name="AMIN">      0.10000000</i>
    <i name="AMIX_MAG">      1.60000000</i>
    <i name="BMIX_MAG">      1.00000000</i>
    <separator name="electronic mixer details" >
     <i type="int" name="IMIX">     4</i>
     <i type="logical" name="MIXFIRST"> F  </i>
     <i type="int" name="MAXMIX">   -45</i>
     <i name="WC">    100.00000000</i>
     <i type="int" name="INIMIX">     1</i>
     <i type="int" name="MIXPRE">     1</i>
     <i type="int" name="MREMOVE">     5</i>
    </separator>
   </separator>
   <separator name="electronic dipolcorrection" >
    <i type="logical" name="LDIPOL"> F  </i>
    <i type="logical" name="LMONO"> F  </i>
    <i type="int" name="IDIPOL">     0</i>
    <i name="EPSILON">      1.00000000</i>
    <v name="DIPOL">   -100.00000000   -100.00000000   -100.00000000</v>
    <i name="EFIELD">      0.00000000</i>
   </separator>
  </separator>
  <separator name="grids" >
   <i type="int" name="NGX">    56</i>
   <i type="int" name="NGY">    56</i>
   <i type="int" name="NGZ">   160</i>
   <i type="int" name="NGXF">    80</i>
   <i type="int" name="NGYF">    80</i>
   <i type="int" name="NGZF">   210</i>
   <i type="logical" name="ADDGRID"> F  </i>
  </separator>
  <separator name="ionic" >
   <i type="int" name="NSW">   200</i>
   <i type="int" name="IBRION">     2</i>
   <i type="int" name="MDALGO">     0</i>
   <i type="int" name="ISIF">     1</i>
   <i name="PSTRESS">      0.00000000</i>
   <i name="EDIFFG">      0.00010000</i>
   <i type="int" name="NFREE">     1</i>
   <i name="POTIM">      0.50000000</i>
   <i name="SMASS">     -3.00000000</i>
   <i name="SCALEE">      1.00000000</i>
  </separator>
  <separator name="ionic md" >
   <i name="TEBEG">      0.00010000</i>
   <i name="TEEND">      0.00010000</i>
   <i type="int" name="NBLOCK">     1</i>
   <i type="int" name="KBLOCK">   200</i>
   <i type="int" name="NPACO">   256</i>
   <i name="APACO">     16.00000000</i>
  </separator>
  <separator name="symmetry" >
   <i type="int" name="ISYM">     0</i>
   <i name="SYMPREC">      0.00001000</i>
  </separator>
  <separator name="dos" >
   <i type="int" name="LORBIT">     0</i>
   <v name="RWIGS">     -1.00000000     -1.00000000</v>
   <i type="int" name="NEDOS">   301</i>
   <i name="EMIN">     10.00000000</i>
   <i name="EMAX">    -10.00000000</i>
   <i name="EFERMI">      0.00000000</i>
  </separator>
  <separator name="writing" >
   <i type="int" name="NWRITE">     2</i>
   <i type="logical" name="LWAVE"> F  </i>
   <i type="logical" name="LDOWNSAMPLE"> F  </i>
   <i type="logical" name="LCHARG"> F  </i>
   <i type="logical" name="LPARD"> F  </i>
   <i type="logical" name="LVTOT"> F  </i>
   <i type="logical" name="LVHAR"> F  </i>
   <i type="logical" name="LELF"> F  </i>
   <i type="logical" name="LOPTICS"> F  </i>
   <v name="STM">      0.00000000      0.00000000      0.00000000      0.00000000      0.00000000      0.00000000      0.00000000</v>
  </separator>
  <separator name="performance" >
   <i type="int" name="NPAR">     8</i>
   <i type="int" name="NSIM">     4</i>
   <i type="int" name="NBLK">    -1</i>
   <i type="logical" name="LPLANE"> T  </i>
   <i type="logical" name="LSCALAPACK"> T  </i>
   <i type="logical" name="LSCAAWARE"> F  </i>
   <i type="logical" name="LSCALU"> F  </i>
   <i type="logical" name="LASYNC"> F  </i>
   <i type="logical" name="LORBITALREAL"> F  </i>
  </separator>
  <separator name="miscellaneous" >
   <i type="int" name="IDIOT">     3</i>
   <i type="int" name="ISPECIAL">     0</i>
   <i type="logical" name="LMUSIC"> F  </i>
   <v name="POMASS">    195.08000000      1.00000000</v>
   <v name="DARWINR">      0.00000000      0.00000000</v>
   <v name="DARWINV">      1.00000000      1.00000000</v>
   <i type="logical" name="LCORR"> T  </i>
  </separator>
  <i type="logical" name="GGA_COMPAT"> T  </i>
  <i type="logical" name="LBERRY"> F  </i>
  <i type="int" name="ICORELEVEL">     0</i>
  <i type="logical" name="LDAU"> F  </i>
  <i type="int" name="I_CONSTRAINED_M">     0</i>
  <separator name="electronic exchange-correlation" >
   <i type="string" name="GGA">--</i>
   <i type="int" name="VOSKOWN">     0</i>
   <i type="logical" name="LHFCALC"> F  </i>
   <i type="string" name="PRECFOCK"></i>
   <i type="logical" name="LSYMGRAD"> F  </i>
   <i type="logical" name="LHFONE"> F  </i>
   <i type="logical" name="LRHFCALC"> F  </i>
   <i type="logical" name="LTHOMAS"> F  </i>
   <i type="logical" name="LMODELHF"> F  </i>
   <i name="ENCUT4O">     -1.00000000</i>
   <i type="int" name="EXXOEP">     0</i>
   <i type="int" name="FOURORBIT">     0</i>
   <i name="AEXX">      0.00000000</i>
   <i name="HFALPHA">      0.00000000</i>
   <i name="MCALPHA">      0.00000000</i>
   <i name="ALDAX">      1.00000000</i>
   <i name="AGGAX">      1.00000000</i>
   <i name="ALDAC">      1.00000000</i>
   <i name="AGGAC">      1.00000000</i>
   <i type="int" name="NKREDX">     1</i>
   <i type="int" name="NKREDY">     1</i>
   <i type="int" name="NKREDZ">     1</i>
   <i type="logical" name="SHIFTRED"> F  </i>
   <i type="logical" name="ODDONLY"> F  </i>
   <i type="logical" name="EVENONLY"> F  </i>
   <i type="int" name="LMAXFOCK">     0</i>
   <i type="int" name="NMAXFOCKAE">     0</i>
   <i type="logical" name="LFOCKAEDFT"> F  </i>
   <i name="HFSCREEN">      0.00000000</i>
   <i name="HFSCREENC">      0.00000000</i>
   <i type="int" name="NBANDSGWLOW">     0</i>
  </separator>
  <separator name="vdW DFT" >
   <i type="logical" name="LUSE_VDW"> F  </i>
   <i name="Zab_VDW">     -0.84910000</i>
   <i name="PARAM1">      0.12340000</i>
   <i name="PARAM2">      1.00000000</i>
   <i name="PARAM3">      0.00000000</i>
  </separator>
  <separator name="model GW" >
   <i type="int" name="MODEL_GW">     0</i>
   <i name="MODEL_EPS0">     31.61407625</i>
   <i name="MODEL_ALPHA">      1.00000000</i>
  </separator>
  <separator name="linear response parameters" >
   <i type="logical" name="LEPSILON"> F  </i>
   <i type="logical" name="LRPA"> F  </i>
   <i type="logical" name="LNABLA"> F  </i>
   <i type="logical" name="LVEL"> F  </i>
   <i type="int" name="KINTER">     0</i>
   <i name="CSHIFT">      0.10000000</i>
   <i name="OMEGAMAX">     -1.00000000</i>
   <i name="DEG_THRESHOLD">      0.00200000</i>
   <i name="RTIME">     -0.10000000</i>
   <i name="WPLASMAI">      0.00000000</i>
   <v name="DFIELD">      0.00000000      0.00000000      0.00000000</v>
   <v name="WPLASMA">      0.00000000      0.00000000      0.00000000      0.00000000      0.00000000      0.00000000      0.00000000      0.00000000      0.00000000</v>
  </separator>
  <separator name="orbital magnetization" >
   <i type="logical" name="NUCIND"> F  </i>
   <v name="MAGPOS">      0.00000000      0.00000000      0.00000000</v>
   <i type="logical" name="LNICSALL"> T  </i>
   <i type="logical" name="ORBITALMAG"> F  </i>
   <i type="logical" name="LMAGBLOCH"> F  </i>
   <i type="logical" name="LCHIMAG"> F  </i>
   <i type="logical" name="LGAUGE"> T  </i>
   <i type="int" name="MAGATOM">     0</i>
   <v name="MAGDIPOL">      0.00000000      0.00000000      0.00000000</v>
   <v name="AVECCONST">      0.00000000      0.00000000      0.00000000</v>
  </separator>
  <separator name="response functions" >
   <i type="logical" name="LADDER"> F  </i>
   <i type="logical" name="LRPAFORCE"> F  </i>
   <i type="logical" name="LFXC"> F  </i>
   <i type="logical" name="LHARTREE"> T  </i>
   <i type="int" name="IBSE">     0</i>
   <v type="int" name="KPOINT">    -1     0     0     0</v>
   <i type="logical" name="LTCTE"> F  </i>
   <i type="logical" name="LTETE"> F  </i>
   <i type="logical" name="LTRIPLET"> F  </i>
   <i type="logical" name="LFXCEPS"> F  </i>
   <i type="logical" name="LFXHEG"> F  </i>
   <i type="int" name="NATURALO">     2</i>
   <i type="logical" name="L2ORDER"> F  </i>
   <i type="logical" name="LMP2LT"> F  </i>
   <i type="logical" name="LUSEW"> F  </i>
   <i name="ENCUTGW">     -2.00000000</i>
   <i name="ENCUTGWSOFT">     -2.00000000</i>
   <i name="ENCUTLF">     -1.00000000</i>
   <i type="int" name="LMAXMP2">    -1</i>
   <i name="SCISSOR">      0.00000000</i>
   <i type="int" name="NOMEGA">     0</i>
   <i type="int" name="NOMEGAR">     0</i>
   <i type="int" name="NBANDSGW">    -1</i>
   <i type="int" name="NBANDSO">    -1</i>
   <i type="int" name="NBANDSV">    -1</i>
   <i type="int" name="NELM">   100</i>
   <i type="int" name="NELMHF">     1</i>
   <i type="int" name="DIM">     3</i>
   <i type="int" name="ANTIRES">     0</i>
   <i name="OMEGAMAX">    -30.00000000</i>
   <i name="OMEGAMIN">    -30.00000000</i>
   <i name="OMEGATL">   -200.00000000</i>
   <i type="int" name="OMEGAGRID">   140</i>
   <i name="CSHIFT">     -0.10000000</i>
   <i type="logical" name="SELFENERGY"> F  </i>
   <i type="logical" name="LSPECTRAL"> F  </i>
   <i type="logical" name="LSPECTRALGW"> F  </i>
   <i type="logical" name="LSINGLES"> F  </i>
   <i type="logical" name="LFERMIGW"> F  </i>
   <i type="logical" name="ODDONLYGW"> F  </i>
   <i type="logical" name="EVENONLYGW"> F  </i>
   <i type="int" name="NKREDLFX">     1</i>
   <i type="int" name="NKREDLFY">     1</i>
   <i type="int" name="NKREDLFZ">     1</i>
   <i type="int" name="MAXMEM">  2800</i>
   <i type="int" name="TELESCOPE">     0</i>
   <i type="int" name="TAUPAR">     1</i>
   <i type="int" name="OMEGAPAR">    -1</i>
   <i name="LAMBDA">      1.00000000</i>
  </separator>
  <separator name="External order field" >
   <i name="OFIELD_KAPPA">      0.00000000</i>
   <v name="OFIELD_K">      0.00000000      0.00000000      0.00000000</v>
   <i name="OFIELD_Q6_NEAR">      0.00000000</i>
   <i name="OFIELD_Q6_FAR">      0.00000000</i>
   <i name="OFIELD_A">      0.00000000</i>
  </separator>
 </parameters>
 <atominfo>
  <atoms>      65 </atoms>
  <types>       2 </types>
  <array name="atoms" >
   <dimension dim="1">ion</dimension>
   <field type="string">element</field>
   <field type="int">atomtype</field>
   <set>
    <rc><c>Pt</c><c>   1</c></rc>
    <rc><c>Pt</c><c>   1</c></rc>
    <rc><c>Pt</c><c>   1</c></rc>
    <rc><c>Pt</c><c>   1</c></rc>
    <rc><c>Pt</c><c>   1</c></rc>
    <rc><c>Pt</c><c>   1</c></rc>
    <rc><c>Pt</c><c>   1</c></rc>
    <rc><c>Pt</c><c>   1</c></rc>
    <rc><c>Pt</c><c>   1</c></rc>
    <rc><c>Pt</c><c>   1</c></rc>
    <rc><c>Pt</c><c>   1</c></rc>
    <rc><c>Pt</c><c>   1</c></rc>
    <rc><c>Pt</c><c>   1</c></rc>
    <rc><c>Pt</c><c>   1</c></rc>
    <rc><c>Pt</c><c>   1</c></rc>
    <rc><c>Pt</c><c>   1</c></rc>
    <rc><c>Pt</c><c>   1</c></rc>
    <rc><c>Pt</c><c>   1</c></rc>
    <rc><c>Pt</c><c>   1</c></rc>
    <rc><c>Pt</c><c>   1</c></rc>
    <rc><c>Pt</c><c>   1</c></rc>
    <rc><c>Pt</c><c>   1</c></rc>
    <rc><c>Pt</c><c>   1</c></rc>
    <rc><c>Pt</c><c>   1</c></rc>
    <rc><c>Pt</c><c>   1</c></rc>
    <rc><c>Pt</c><c>   1</c></rc>
    <rc><c>Pt</c><c>   1</c></rc>
    <rc><c>Pt</c><c>   1</c></rc>
    <rc><c>Pt</c><c>   1</c></rc>
    <rc><c>Pt</c><c>   1</c></rc>
    <rc><c>Pt</c><c>   1</c></rc>
    <rc><c>Pt</c><c>   1</c></rc>
    <rc><c>Pt</c><c>   1</c></rc>
    <rc><c>Pt</c><c>   1</c></rc>
    <rc><c>Pt</c><c>   1</c></rc>
    <rc><c>Pt</c><c>   1</c></rc>
    <rc><c>Pt</c><c>   1</c></rc>
    <rc><c>Pt</c><c>   1</c></rc>
    <rc><c>Pt</c><c>   1</c></rc>
    <rc><c>Pt</c><c>   1</c></rc>
    <rc><c>Pt</c><c>   1</c></rc>
    <rc><c>Pt</c><c>   1</c></rc>
    <rc><c>Pt</c><c>   1</c></rc>
    <rc><c>Pt</c><c>   1</c></rc>
    <rc><c>Pt</c><c>   1</c></rc>
    <rc><c>Pt</c><c>   1</c></rc>
    <rc><c>Pt</c><c>   1</c></rc>
    <rc><c>Pt</c><c>   1</c></rc>
    <rc><c>Pt</c><c>   1</c></rc>
    <rc><c>Pt</c><c>   1</c></rc>
    <rc><c>Pt</c><c>   1</c></rc>
    <rc><c>Pt</c><c>   1</c></rc>
    <rc><c>Pt</c><c>   1</c></rc>
    <rc><c>Pt</c><c>   1</c></rc>
    <rc><c>Pt</c><c>   1</c></rc>
    <rc><c>Pt</c><c>   1</c></rc>
    <rc><c>Pt</c><c>   1</c></rc>
    <rc><c>Pt</c><c>   1</c></rc>
    <rc><c>Pt</c><c>   1</c></rc>
    <rc><c>Pt</c><c>   1</c></rc>
    <rc><c>Pt</c><c>   1</c></rc>
    <rc><c>Pt</c><c>   1</c></rc>
    <rc><c>Pt</c><c>   1</c></rc>
    <rc><c>Pt</c><c>   1</c></rc>
    <rc><c>H </c><c>   2</c></rc>
   </set>
  </array>
  <array name="atomtypes" >
   <dimension dim="1">type</dimension>
   <field type="int">atomspertype</field>
   <field type="string">element</field>
   <field>mass</field>
   <field>valence</field>
   <field type="string">pseudopotential</field>
   <set>
    <rc><c>  64</c><c>Pt</c><c>    195.08000000</c><c>     10.00000000</c><c>  PAW_PBE Pt 04Feb2005                  </c></rc>
    <rc><c>   1</c><c>H </c><c>      1.00000000</c><c>      1.00000000</c><c>  PAW_PBE H 15Jun2001                   </c></rc>
   </set>
  </array>
 </atominfo>
 <structure name="initialpos" >
  <crystal>
   <varray name="basis" >
    <v>      11.21440000       0.00000000       0.00000000 </v>
    <v>       5.60720000       9.71195529       0.00000000 </v>
    <v>       0.00000000       0.00000000      31.44560000 </v>
   </varray>
   <i name="volume">   3424.85826052 </i>
   <varray name="rec_basis" >
    <v>       0.08917107      -0.05148294       0.00000000 </v>
    <v>       0.00000000       0.10296588       0.00000000 </v>
    <v>       0.00000000       0.00000000       0.03180095 </v>
   </varray>
  </crystal>
  <varray name="positions" >
   <v>       0.08333000       0.33333000       0.39081000 </v>
   <v>       0.08333000       0.08333000       0.39081000 </v>
   <v>       0.33333000       0.33333000       0.39081000 </v>
   <v>       0.33333000       0.08333000       0.39081000 </v>
   <v>       0.41667000       0.16667000       0.46360000 </v>
   <v>       0.41667000       0.41667000       0.46360000 </v>
   <v>       0.16667000       0.16667000       0.46360000 </v>
   <v>       0.16667000       0.41667000       0.46360000 </v>
   <v>       0.24971507       0.00037990       0.53564091 </v>
   <v>       0.25117183       0.25018498       0.53541892 </v>
   <v>       0.50008547       0.00187327       0.53549755 </v>
   <v>       0.50068611       0.25251373       0.53867466 </v>
   <v>       0.08320776       0.33282012       0.60856613 </v>
   <v>       0.08139585       0.08439974       0.60890750 </v>
   <v>       0.32720012       0.33366156       0.60948607 </v>
   <v>       0.33314546       0.08372823       0.60875326 </v>
   <v>       0.08333000       0.83333000       0.39081000 </v>
   <v>       0.08333000       0.58333000       0.39081000 </v>
   <v>       0.33333000       0.83333000       0.39081000 </v>
   <v>       0.33333000       0.58333000       0.39081000 </v>
   <v>       0.41667000       0.66667000       0.46360000 </v>
   <v>       0.41667000       0.91667000       0.46360000 </v>
   <v>       0.16667000       0.66667000       0.46360000 </v>
   <v>       0.16667000       0.91667000       0.46360000 </v>
   <v>       0.24928521       0.50020669       0.53579147 </v>
   <v>       0.25026434       0.75001964       0.53510984 </v>
   <v>       0.50021727       0.49869409       0.53847547 </v>
   <v>       0.49996554       0.74956048       0.53537829 </v>
   <v>       0.08220236       0.83533040       0.60865688 </v>
   <v>       0.08143313       0.58454078       0.60899540 </v>
   <v>       0.33232638       0.83568412       0.60885261 </v>
   <v>       0.32469634       0.59197936       0.60888351 </v>
   <v>       0.58333000       0.33333000       0.39081000 </v>
   <v>       0.58333000       0.08333000       0.39081000 </v>
   <v>       0.83333000       0.33333000       0.39081000 </v>
   <v>       0.83333000       0.08333000       0.39081000 </v>
   <v>       0.91667000       0.16667000       0.46360000 </v>
   <v>       0.91667000       0.41667000       0.46360000 </v>
   <v>       0.66667000       0.16667000       0.46360000 </v>
   <v>       0.66667000       0.41667000       0.46360000 </v>
   <v>       0.74947884       0.00072045       0.53555862 </v>
   <v>       0.74510624       0.25315146       0.53911439 </v>
   <v>       0.99725310       0.00231418       0.53553908 </v>
   <v>       0.99759160       0.25032683       0.53548037 </v>
   <v>       0.57992020       0.33676226       0.61887504 </v>
   <v>       0.58352972       0.08099106       0.60947022 </v>
   <v>       0.83601410       0.33444256       0.60962124 </v>
   <v>       0.83429518       0.08180393       0.60960348 </v>
   <v>       0.58333000       0.83333000       0.39081000 </v>
   <v>       0.58333000       0.58333000       0.39081000 </v>
   <v>       0.83333000       0.83333000       0.39081000 </v>
   <v>       0.83333000       0.58333000       0.39081000 </v>
   <v>       0.91667000       0.66667000       0.46360000 </v>
   <v>       0.91667000       0.91667000       0.46360000 </v>
   <v>       0.66667000       0.66667000       0.46360000 </v>
   <v>       0.66667000       0.91667000       0.46360000 </v>
   <v>       0.75003753       0.50017100       0.53576074 </v>
   <v>       0.74956944       0.75015013       0.53571802 </v>
   <v>       0.00012859       0.49969052       0.53567504 </v>
   <v>       0.00049983       0.74996531       0.53572255 </v>
   <v>       0.58232651       0.83436054       0.60851894 </v>
   <v>       0.58331435       0.58953601       0.60928327 </v>
   <v>       0.83222600       0.83512241       0.60875353 </v>
   <v>       0.83309147       0.58384004       0.60879070 </v>
   <v>       0.54104844       0.37869381       0.67567633 </v>
  </varray>
  <varray name="selective"  type="logical" >
   <v type="logical" >  F  F  F </v>
   <v type="logical" >  F  F  F </v>
   <v type="logical" >  F  F  F </v>
   <v type="logical" >  F  F  F </v>
   <v type="logical" >  F  F  F </v>
   <v type="logical" >  F  F  F </v>
   <v type="logical" >  F  F  F </v>
   <v type="logical" >  F  F  F </v>
   <v type="logical" >  T  T  T </v>
   <v type="logical" >  T  T  T </v>
   <v type="logical" >  T  T  T </v>
   <v type="logical" >  T  T  T </v>
   <v type="logical" >  T  T  T </v>
   <v type="logical" >  T  T  T </v>
   <v type="logical" >  T  T  T </v>
   <v type="logical" >  T  T  T </v>
   <v type="logical" >  F  F  F </v>
   <v type="logical" >  F  F  F </v>
   <v type="logical" >  F  F  F </v>
   <v type="logical" >  F  F  F </v>
   <v type="logical" >  F  F  F </v>
   <v type="logical" >  F  F  F </v>
   <v type="logical" >  F  F  F </v>
   <v type="logical" >  F  F  F </v>
   <v type="logical" >  T  T  T </v>
   <v type="logical" >  T  T  T </v>
   <v type="logical" >  T  T  T </v>
   <v type="logical" >  T  T  T </v>
   <v type="logical" >  T  T  T </v>
   <v type="logical" >  T  T  T </v>
   <v type="logical" >  T  T  T </v>
   <v type="logical" >  T  T  T </v>
   <v type="logical" >  F  F  F </v>
   <v type="logical" >  F  F  F </v>
   <v type="logical" >  F  F  F </v>
   <v type="logical" >  F  F  F </v>
   <v type="logical" >  F  F  F </v>
   <v type="logical" >  F  F  F </v>
   <v type="logical" >  F  F  F </v>
   <v type="logical" >  F  F  F </v>
   <v type="logical" >  T  T  T </v>
   <v type="logical" >  T  T  T </v>
   <v type="logical" >  T  T  T </v>
   <v type="logical" >  T  T  T </v>
   <v type="logical" >  T  T  T </v>
   <v type="logical" >  T  T  T </v>
   <v type="logical" >  T  T  T </v>
   <v type="logical" >  T  T  T </v>
   <v type="logical" >  F  F  F </v>
   <v type="logical" >  F  F  F </v>
   <v type="logical" >  F  F  F </v>
   <v type="logical" >  F  F  F </v>
   <v type="logical" >  F  F  F </v>
   <v type="logical" >  F  F  F </v>
   <v type="logical" >  F  F  F </v>
   <v type="logical" >  F  F  F </v>
   <v type="logical" >  T  T  T </v>
   <v type="logical" >  T  T  T </v>
   <v type="logical" >  T  T  T </v>
   <v type="logical" >  T  T  T </v>
   <v type="logical" >  T  T  T </v>
   <v type="logical" >  T  T  T </v>
   <v type="logical" >  T  T  T </v>
   <v type="logical" >  T  T  T </v>
   <v type="logical" >  T  T  T </v>
  </varray>
  <nose>
   <v>      -3.00000000       0.00000000       0.00010000       0.00010000 </v>
  </nose>
 </structure>
 <calculation>
  <scstep>
   <time name="dav">   12.09   12.13</time>
   <time name="total">   12.12   12.16</time>
   <energy>
    <i name="alphaZ">   1139.09295860 </i>
    <i name="ewald"> 406223.83392348 </i>
    <i name="hartreedc">-454287.13253701 </i>
    <i name="XCdc">    217.31000734 </i>
    <i name="pawpsdc">  44554.04029484 </i>
    <i name="pawaedc"> -42743.92178403 </i>
    <i name="eentropy">     -0.00519174 </i>
    <i name="bandstr">   2414.47002278 </i>
    <i name="atom">  46675.64354841 </i>
    <i name="e_fr_energy">   4193.33124265 </i>
    <i name="e_wo_entrp">   4193.33643439 </i>
    <i name="e_0_energy">   4193.33297323 </i>
   </energy>
  </scstep>
  <scstep>
   <time name="dav">   14.45   14.49</time>
   <time name="total">   14.45   14.49</time>
   <energy>
    <i name="e_fr_energy">    -15.29738529 </i>
    <i name="e_wo_entrp">    -15.29862576 </i>
    <i name="e_0_energy">    -15.29779878 </i>
   </energy>
  </scstep>
  <scstep>
   <time name="dav">   13.49   13.52</time>
   <time name="total">   13.49   13.53</time>
   <energy>
    <i name="e_fr_energy">   -379.09904718 </i>
    <i name="e_wo_entrp">   -379.04884616 </i>
    <i name="e_0_energy">   -379.08231351 </i>
   </energy>
  </scstep>
  <scstep>
   <time name="dav">   15.48   15.52</time>
   <time name="total">   15.48   15.52</time>
   <energy>
    <i name="e_fr_energy">   -398.04135681 </i>
    <i name="e_wo_entrp">   -397.96654862 </i>
    <i name="e_0_energy">   -398.01642075 </i>
   </energy>
  </scstep>
  <scstep>
   <time name="dav">   14.15   14.19</time>
   <time name="total">   14.49   14.53</time>
   <energy>
    <i name="e_fr_energy">   -398.59479877 </i>
    <i name="e_wo_entrp">   -398.51750630 </i>
    <i name="e_0_energy">   -398.56903461 </i>
   </energy>
  </scstep>
  <scstep>
   <time name="diag">    1.92    1.92</time>
   <time name="diis">    5.46    5.48</time>
   <time name="orth">    0.49    0.49</time>
   <time name="total">    8.22    8.25</time>
   <energy>
    <i name="e_fr_energy">   -385.62778526 </i>
    <i name="e_wo_entrp">   -385.60840235 </i>
    <i name="e_0_energy">   -385.62132429 </i>
   </energy>
  </scstep>
  <scstep>
   <time name="diag">    1.93    1.93</time>
   <time name="diis">    5.40    5.41</time>
   <time name="orth">    0.48    0.49</time>
   <time name="total">    8.17    8.19</time>
   <energy>
    <i name="e_fr_energy">   -473.64269768 </i>
    <i name="e_wo_entrp">   -473.61421154 </i>
    <i name="e_0_energy">   -473.63320230 </i>
   </energy>
  </scstep>
  <scstep>
   <time name="diag">    1.93    1.93</time>
   <time name="diis">    5.42    5.44</time>
   <time name="orth">    0.48    0.48</time>
   <time name="total">    8.18    8.20</time>
   <energy>
    <i name="e_fr_energy">   -388.72080366 </i>
    <i name="e_wo_entrp">   -388.73244306 </i>
    <i name="e_0_energy">   -388.72468346 </i>
   </energy>
  </scstep>
  <scstep>
   <time name="diag">    1.91    1.91</time>
   <time name="diis">    5.39    5.40</time>
   <time name="orth">    0.48    0.49</time>
   <time name="total">    8.14    8.16</time>
   <energy>
    <i name="e_fr_energy">   -409.49389007 </i>
    <i name="e_wo_entrp">   -409.46729558 </i>
    <i name="e_0_energy">   -409.48502524 </i>
   </energy>
  </scstep>
  <scstep>
   <time name="diag">    1.91    1.91</time>
   <time name="diis">    5.38    5.40</time>
   <time name="orth">    0.48    0.49</time>
   <time name="total">    8.13    8.15</time>
   <energy>
    <i name="e_fr_energy">   -405.90519670 </i>
    <i name="e_wo_entrp">   -405.88779689 </i>
    <i name="e_0_energy">   -405.89939676 </i>
   </energy>
  </scstep>
  <scstep>
   <time name="diag">    1.92    1.93</time>
   <time name="diis">    5.42    5.43</time>
   <time name="orth">    0.49    0.49</time>
   <time name="total">    8.18    8.20</time>
   <energy>
    <i name="e_fr_energy">   -380.74879407 </i>
    <i name="e_wo_entrp">   -380.74388563 </i>
    <i name="e_0_energy">   -380.74715792 </i>
   </energy>
  </scstep>
  <scstep>
   <time name="diag">    1.93    1.93</time>
   <time name="diis">    5.40    5.41</time>
   <time name="orth">    0.49    0.49</time>
   <time name="total">    8.17    8.19</time>
   <energy>
    <i name="e_fr_energy">   -377.45384733 </i>
    <i name="e_wo_entrp">   -377.42805252 </i>
    <i name="e_0_energy">   -377.44524906 </i>
   </energy>
  </scstep>
  <scstep>
   <time name="diag">    1.92    1.93</time>
   <time name="diis">    5.42    5.43</time>
   <time name="orth">    0.49    0.49</time>
   <time name="total">    8.19    8.21</time>
   <energy>
    <i name="e_fr_energy">   -375.46480176 </i>
    <i name="e_wo_entrp">   -375.43949918 </i>
    <i name="e_0_energy">   -375.45636757 </i>
   </energy>
  </scstep>
  <scstep>
   <time name="diag">    1.92    1.93</time>
   <time name="diis">    5.40    5.42</time>
   <time name="orth">    0.49    0.49</time>
   <time name="total">    8.17    8.19</time>
   <energy>
    <i name="e_fr_energy">   -374.61295820 </i>
    <i name="e_wo_entrp">   -374.58477762 </i>
    <i name="e_0_energy">   -374.60356467 </i>
   </energy>
  </scstep>
  <scstep>
   <time name="diag">    1.93    1.93</time>
   <time name="diis">    5.43    5.44</time>
   <time name="orth">    0.49    0.49</time>
   <time name="total">    8.19    8.22</time>
   <energy>
    <i name="e_fr_energy">   -373.77314980 </i>
    <i name="e_wo_entrp">   -373.72830680 </i>
    <i name="e_0_energy">   -373.75820213 </i>
   </energy>
  </scstep>
  <scstep>
   <time name="diag">    1.93    1.93</time>
   <time name="diis">    5.53    5.55</time>
   <time name="orth">    0.49    0.49</time>
   <time name="total">    8.30    8.33</time>
   <energy>
    <i name="e_fr_energy">   -373.65224355 </i>
    <i name="e_wo_entrp">   -373.60617888 </i>
    <i name="e_0_energy">   -373.63688866 </i>
   </energy>
  </scstep>
  <scstep>
   <time name="diag">    1.92    1.92</time>
   <time name="diis">    5.56    5.58</time>
   <time name="orth">    0.49    0.49</time>
   <time name="total">    8.32    8.34</time>
   <energy>
    <i name="e_fr_energy">   -373.61243181 </i>
    <i name="e_wo_entrp">   -373.56981181 </i>
    <i name="e_0_energy">   -373.59822514 </i>
   </energy>
  </scstep>
  <scstep>
   <time name="diag">    1.92    1.93</time>
   <time name="diis">    5.43    5.45</time>
   <time name="orth">    0.49    0.49</time>
   <time name="total">    8.20    8.22</time>
   <energy>
    <i name="e_fr_energy">   -373.56489791 </i>
    <i name="e_wo_entrp">   -373.52322213 </i>
    <i name="e_0_energy">   -373.55100599 </i>
   </energy>
  </scstep>
  <scstep>
   <time name="diag">    1.93    1.94</time>
   <time name="diis">    5.43    5.44</time>
   <time name="orth">    0.49    0.49</time>
   <time name="total">    8.20    8.22</time>
   <energy>
    <i name="e_fr_energy">   -373.55592470 </i>
    <i name="e_wo_entrp">   -373.51418446 </i>
    <i name="e_0_energy">   -373.54201129 </i>
   </energy>
  </scstep>
  <scstep>
   <time name="diag">    1.93    1.94</time>
   <time name="diis">    5.43    5.45</time>
   <time name="orth">    0.49    0.49</time>
   <time name="total">    8.21    8.23</time>
   <energy>
    <i name="e_fr_energy">   -373.54406232 </i>
    <i name="e_wo_entrp">   -373.50115009 </i>
    <i name="e_0_energy">   -373.52975824 </i>
   </energy>
  </scstep>
  <scstep>
   <time name="diag">    1.92    1.92</time>
   <time name="diis">    5.43    5.45</time>
   <time name="orth">    0.49    0.49</time>
   <time name="total">    8.19    8.22</time>
   <energy>
    <i name="e_fr_energy">   -373.53969139 </i>
    <i name="e_wo_entrp">   -373.49574463 </i>
    <i name="e_0_energy">   -373.52504247 </i>
   </energy>
  </scstep>
  <scstep>
   <time name="diag">    1.92    1.93</time>
   <time name="diis">    5.42    5.44</time>
   <time name="orth">    0.49    0.49</time>
   <time name="total">    8.19    8.21</time>
   <energy>
    <i name="e_fr_energy">   -373.52969069 </i>
    <i name="e_wo_entrp">   -373.48733003 </i>
    <i name="e_0_energy">   -373.51557047 </i>
   </energy>
  </scstep>
  <scstep>
   <time name="diag">    1.92    1.93</time>
   <time name="diis">    5.48    5.49</time>
   <time name="orth">    0.49    0.49</time>
   <time name="total">    8.25    8.27</time>
   <energy>
    <i name="e_fr_energy">   -373.52802983 </i>
    <i name="e_wo_entrp">   -373.48625230 </i>
    <i name="e_0_energy">   -373.51410399 </i>
   </energy>
  </scstep>
  <scstep>
   <time name="diag">    1.93    1.93</time>
   <time name="diis">    5.47    5.48</time>
   <time name="orth">    0.49    0.49</time>
   <time name="total">    8.24    8.26</time>
   <energy>
    <i name="e_fr_energy">   -373.52789906 </i>
    <i name="e_wo_entrp">   -373.48621020 </i>
    <i name="e_0_energy">   -373.51400277 </i>
   </energy>
  </scstep>
  <scstep>
   <time name="diag">    1.92    1.93</time>
   <time name="diis">    5.43    5.45</time>
   <time name="orth">    0.49    0.49</time>
   <time name="total">    8.20    8.22</time>
   <energy>
    <i name="e_fr_energy">   -373.52723735 </i>
    <i name="e_wo_entrp">   -373.48561049 </i>
    <i name="e_0_energy">   -373.51336173 </i>
   </energy>
  </scstep>
  <scstep>
   <time name="diag">    1.92    1.92</time>
   <time name="diis">    5.43    5.44</time>
   <time name="orth">    0.49    0.49</time>
   <time name="total">    8.20    8.22</time>
   <energy>
    <i name="e_fr_energy">   -373.52666412 </i>
    <i name="e_wo_entrp">   -373.48539578 </i>
    <i name="e_0_energy">   -373.51290800 </i>
   </energy>
  </scstep>
  <scstep>
   <time name="diag">    1.93    1.93</time>
   <time name="diis">    5.40    5.41</time>
   <time name="orth">    0.49    0.49</time>
   <time name="total">    8.17    8.20</time>
   <energy>
    <i name="e_fr_energy">   -373.52596461 </i>
    <i name="e_wo_entrp">   -373.48558244 </i>
    <i name="e_0_energy">   -373.51250389 </i>
   </energy>
  </scstep>
  <scstep>
   <time name="diag">    1.94    1.94</time>
   <time name="diis">    5.43    5.45</time>
   <time name="orth">    0.49    0.49</time>
   <time name="total">    8.21    8.24</time>
   <energy>
    <i name="e_fr_energy">   -373.52586681 </i>
    <i name="e_wo_entrp">   -373.48567889 </i>
    <i name="e_0_energy">   -373.51247084 </i>
   </energy>
  </scstep>
  <scstep>
   <time name="diag">    1.92    1.92</time>
   <time name="diis">    5.43    5.45</time>
   <time name="orth">    0.49    0.49</time>
   <time name="total">    8.19    8.21</time>
   <energy>
    <i name="e_fr_energy">   -373.52579921 </i>
    <i name="e_wo_entrp">   -373.48550318 </i>
    <i name="e_0_energy">   -373.51236720 </i>
   </energy>
  </scstep>
  <scstep>
   <time name="diag">    1.92    1.93</time>
   <time name="diis">    4.08    4.09</time>
   <time name="orth">    0.49    0.49</time>
   <time name="total">    6.51    6.53</time>
   <energy>
    <i name="alphaZ">   1139.09295860 </i>
    <i name="ewald"> 406223.83392348 </i>
    <i name="hartreedc">-453629.78805758 </i>
    <i name="XCdc">    194.58921858 </i>
    <i name="pawpsdc">  56157.67860118 </i>
    <i name="pawaedc"> -54520.29308644 </i>
    <i name="eentropy">     -0.04024661 </i>
    <i name="bandstr">  -2614.24266860 </i>
    <i name="atom">  46675.64354841 </i>
    <i name="e_fr_energy">   -373.52580897 </i>
    <i name="e_wo_entrp">   -373.48556236 </i>
    <i name="e_0_energy">   -373.51239343 </i>
   </energy>
  </scstep>
  <structure>
   <crystal>
    <varray name="basis" >
     <v>      11.21440000       0.00000000       0.00000000 </v>
     <v>       5.60720000       9.71195529       0.00000000 </v>
     <v>       0.00000000       0.00000000      31.44560000 </v>
    </varray>
    <i name="volume">   3424.85826052 </i>
    <varray name="rec_basis" >
     <v>       0.08917107      -0.05148294       0.00000000 </v>
     <v>       0.00000000       0.10296588       0.00000000 </v>
     <v>       0.00000000       0.00000000       0.03180095 </v>
    </varray>
   </crystal>
   <varray name="positions" >
    <v>       0.08333000       0.33333000       0.39081000 </v>
    <v>       0.08333000       0.08333000       0.39081000 </v>
    <v>       0.33333000       0.33333000       0.39081000 </v>
    <v>       0.33333000       0.08333000       0.39081000 </v>
    <v>       0.41667000       0.16667000       0.46360000 </v>
    <v>       0.41667000       0.41667000       0.46360000 </v>
    <v>       0.16667000       0.16667000       0.46360000 </v>
    <v>       0.16667000       0.41667000       0.46360000 </v>
    <v>       0.24971507       0.00037990       0.53564091 </v>
    <v>       0.25117183       0.25018498       0.53541892 </v>
    <v>       0.50008547       0.00187327       0.53549755 </v>
    <v>       0.50068611       0.25251373       0.53867466 </v>
    <v>       0.08320776       0.33282012       0.60856613 </v>
    <v>       0.08139585       0.08439974       0.60890750 </v>
    <v>       0.32720012       0.33366156       0.60948607 </v>
    <v>       0.33314546       0.08372823       0.60875326 </v>
    <v>       0.08333000       0.83333000       0.39081000 </v>
    <v>       0.08333000       0.58333000       0.39081000 </v>
    <v>       0.33333000       0.83333000       0.39081000 </v>
    <v>       0.33333000       0.58333000       0.39081000 </v>
    <v>       0.41667000       0.66667000       0.46360000 </v>
    <v>       0.41667000       0.91667000       0.46360000 </v>
    <v>       0.16667000       0.66667000       0.46360000 </v>
    <v>       0.16667000       0.91667000       0.46360000 </v>
    <v>       0.24928521       0.50020669       0.53579147 </v>
    <v>       0.25026434       0.75001964       0.53510984 </v>
    <v>       0.50021727       0.49869409       0.53847547 </v>
    <v>       0.49996554       0.74956048       0.53537829 </v>
    <v>       0.08220236       0.83533040       0.60865688 </v>
    <v>       0.08143313       0.58454078       0.60899540 </v>
    <v>       0.33232638       0.83568412       0.60885261 </v>
    <v>       0.32469634       0.59197936       0.60888351 </v>
    <v>       0.58333000       0.33333000       0.39081000 </v>
    <v>       0.58333000       0.08333000       0.39081000 </v>
    <v>       0.83333000       0.33333000       0.39081000 </v>
    <v>       0.83333000       0.08333000       0.39081000 </v>
    <v>       0.91667000       0.16667000       0.46360000 </v>
    <v>       0.91667000       0.41667000       0.46360000 </v>
    <v>       0.66667000       0.16667000       0.46360000 </v>
    <v>       0.66667000       0.41667000       0.46360000 </v>
    <v>       0.74947884       0.00072045       0.53555862 </v>
    <v>       0.74510624       0.25315146       0.53911439 </v>
    <v>       0.99725310       0.00231418       0.53553908 </v>
    <v>       0.99759160       0.25032683       0.53548037 </v>
    <v>       0.57992020       0.33676226       0.61887504 </v>
    <v>       0.58352972       0.08099106       0.60947022 </v>
    <v>       0.83601410       0.33444256       0.60962124 </v>
    <v>       0.83429518       0.08180393       0.60960348 </v>
    <v>       0.58333000       0.83333000       0.39081000 </v>
    <v>       0.58333000       0.58333000       0.39081000 </v>
    <v>       0.83333000       0.83333000       0.39081000 </v>
    <v>       0.83333000       0.58333000       0.39081000 </v>
    <v>       0.91667000       0.66667000       0.46360000 </v>
    <v>       0.91667000       0.91667000       0.46360000 </v>
    <v>       0.66667000       0.66667000       0.46360000 </v>
    <v>       0.66667000       0.91667000       0.46360000 </v>
    <v>       0.75003753       0.50017100       0.53576074 </v>
    <v>       0.74956944       0.75015013       0.53571802 </v>
    <v>       0.00012859       0.49969052       0.53567504 </v>
    <v>       0.00049983       0.74996531       0.53572255 </v>
    <v>       0.58232651       0.83436054       0.60851894 </v>
    <v>       0.58331435       0.58953601       0.60928327 </v>
    <v>       0.83222600       0.83512241       0.60875353 </v>
    <v>       0.83309147       0.58384004       0.60879070 </v>
    <v>       0.54104844       0.37869381       0.67567633 </v>
   </varray>
  </structure>
  <varray name="forces" >
   <v>      -0.00326201      -0.02897358      -0.05473766 </v>
   <v>       0.08775971      -0.05539147      -0.13580069 </v>
   <v>      -0.00339546      -0.02049236      -0.06312916 </v>
   <v>      -0.07656745      -0.04758945      -0.12506961 </v>
   <v>       0.12047230       0.06183138       0.04977318 </v>
   <v>       0.12451339      -0.07357040       0.42082209 </v>
   <v>      -0.01198445       0.00536660       0.08468850 </v>
   <v>       0.03627700       0.01279745       0.00284810 </v>
   <v>      -0.01783819       0.03484942       0.00119545 </v>
   <v>      -0.08691691       0.00024710      -0.02044883 </v>
   <v>      -0.02917910      -0.05810988      -0.00340115 </v>
   <v>       0.04520313       0.02790248      -0.11140844 </v>
   <v>      -0.03452148       0.02214448       0.06078135 </v>
   <v>       0.05838077      -0.00939514      -0.00323330 </v>
   <v>       0.35345497       0.04666859       0.01983777 </v>
   <v>      -0.04160668      -0.00486278       0.02825003 </v>
   <v>       0.01714759       0.02230362      -0.05838269 </v>
   <v>       0.00467712       0.00171065      -0.04767266 </v>
   <v>       0.00204989       0.07941803      -0.11801805 </v>
   <v>       0.01527391       0.01374350      -0.06922470 </v>
   <v>       0.01857999      -0.13066415       0.01946507 </v>
   <v>      -0.00572935       0.02760993       0.05729467 </v>
   <v>      -0.00529867      -0.04836356      -0.02497978 </v>
   <v>      -0.00641434       0.04668947       0.05964202 </v>
   <v>       0.11268492      -0.03250414       0.03036460 </v>
   <v>      -0.01279062       0.01294049       0.08542491 </v>
   <v>       0.01127076      -0.01308633      -0.12606999 </v>
   <v>      -0.02261390       0.01604445      -0.01015048 </v>
   <v>      -0.02003167       0.04525448       0.04309069 </v>
   <v>      -0.05841402       0.03035820       0.00644105 </v>
   <v>      -0.02917397       0.00152225      -0.01037958 </v>
   <v>       0.22733678      -0.38460032       0.08860035 </v>
   <v>       0.00376306      -0.01048179      -0.03017816 </v>
   <v>      -0.03195508      -0.00145432      -0.07406427 </v>
   <v>       0.00650078      -0.02193234      -0.06319240 </v>
   <v>       0.02821614       0.00466342      -0.06738763 </v>
   <v>      -0.13752774       0.07365371       0.08323215 </v>
   <v>      -0.03717614       0.01086508       0.01064185 </v>
   <v>       0.01155235       0.18814756       0.43720354 </v>
   <v>      -0.13182014      -0.08797295       0.43935222 </v>
   <v>       0.01109615       0.02153994       0.03820211 </v>
   <v>      -0.07623037       0.02324370      -0.11531301 </v>
   <v>       0.03770881      -0.05867854       0.00341132 </v>
   <v>       0.09945856       0.00520063       0.00819759 </v>
   <v>      -0.28438536       0.66294996       1.89334123 </v>
   <v>       0.08138993       0.23162611       0.02013729 </v>
   <v>      -0.25959865       0.01854003       0.01887268 </v>
   <v>      -0.09664995       0.17914613       0.01777040 </v>
   <v>      -0.01717001       0.01706493      -0.05454746 </v>
   <v>      -0.01511078       0.02421562      -0.07244169 </v>
   <v>      -0.00016361      -0.00038638      -0.04898592 </v>
   <v>      -0.00433212       0.00151558      -0.04940252 </v>
   <v>      -0.00097076       0.00446854       0.07124522 </v>
   <v>      -0.02097899       0.01755627       0.01776489 </v>
   <v>      -0.00400880      -0.03850517      -0.00218699 </v>
   <v>       0.01581651       0.01798438       0.00548371 </v>
   <v>      -0.09924006      -0.03385612       0.00788125 </v>
   <v>       0.06972719       0.01705339      -0.03062745 </v>
   <v>      -0.01138047       0.01881240      -0.02166048 </v>
   <v>      -0.08351800       0.05660777      -0.02249401 </v>
   <v>       0.01799010       0.05390736       0.08050260 </v>
   <v>      -0.22012609      -0.30221577       0.03664749 </v>
   <v>      -0.01189979      -0.08793410       0.01338034 </v>
   <v>       0.07275517       0.05165645       0.03771836 </v>
   <v>       0.31892420      -0.65880052      -2.66491732 </v>
  </varray>
  <varray name="stress" >
   <v>     -21.90868325       0.13388901       0.22839226 </v>
   <v>       0.13388901     -21.62099470      -0.44525306 </v>
   <v>       0.22839226      -0.44525306     -21.39874193 </v>
  </varray>
  <energy>
   <i name="e_fr_energy">   -373.52580897 </i>
   <i name="e_wo_entrp">   -373.51239343 </i>
   <i name="e_0_energy">     -0.04024661 </i>
  </energy>
  <time name="totalsc">  277.71  278.48</time>
 </calculation>
 <calculation>
  <scstep>
   <time name="dav">   12.09   12.12</time>
   <time name="total">   12.44   12.48</time>
   <energy>
    <i name="alphaZ">   1139.09295860 </i>
    <i name="ewald"> 405956.10958045 </i>
    <i name="hartreedc">-453362.32962192 </i>
    <i name="XCdc">    194.63981978 </i>
    <i name="pawpsdc">  56157.16840126 </i>
    <i name="pawaedc"> -54519.77659441 </i>
    <i name="eentropy">     -0.03861213 </i>
    <i name="bandstr">  -2614.39737173 </i>
    <i name="atom">  46675.64354841 </i>
    <i name="e_fr_energy">   -373.88789166 </i>
    <i name="e_wo_entrp">   -373.84927953 </i>
    <i name="e_0_energy">   -373.87502095 </i>
   </energy>
  </scstep>
  <scstep>
   <time name="diag">    1.92    1.93</time>
   <time name="diis">    5.44    5.46</time>
   <time name="orth">    0.49    0.49</time>
   <time name="total">    8.21    8.24</time>
   <energy>
    <i name="e_fr_energy">   -373.97986537 </i>
    <i name="e_wo_entrp">   -373.93996352 </i>
    <i name="e_0_energy">   -373.96656475 </i>
   </energy>
  </scstep>
  <scstep>
   <time name="diag">    1.94    1.94</time>
   <time name="diis">    5.54    5.55</time>
   <time name="orth">    0.49    0.50</time>
   <time name="total">    8.32    8.35</time>
   <energy>
    <i name="e_fr_energy">   -374.11520271 </i>
    <i name="e_wo_entrp">   -374.07416963 </i>
    <i name="e_0_energy">   -374.10152502 </i>
   </energy>
  </scstep>
  <scstep>
   <time name="diag">    1.93    1.93</time>
   <time name="diis">    5.46    5.48</time>
   <time name="orth">    0.50    0.50</time>
   <time name="total">    8.25    8.27</time>
   <energy>
    <i name="e_fr_energy">   -374.00592340 </i>
    <i name="e_wo_entrp">   -373.96554935 </i>
    <i name="e_0_energy">   -373.99246538 </i>
   </energy>
  </scstep>
  <scstep>
   <time name="diag">    1.92    1.93</time>
   <time name="diis">    5.45    5.46</time>
   <time name="orth">    0.49    0.49</time>
   <time name="total">    8.21    8.24</time>
   <energy>
    <i name="e_fr_energy">   -373.97326100 </i>
    <i name="e_wo_entrp">   -373.93357029 </i>
    <i name="e_0_energy">   -373.96003076 </i>
   </energy>
  </scstep>
  <scstep>
   <time name="diag">    1.92    1.93</time>
   <time name="diis">    5.42    5.43</time>
   <time name="orth">    0.49    0.49</time>
   <time name="total">    8.18    8.21</time>
   <energy>
    <i name="e_fr_energy">   -373.97190962 </i>
    <i name="e_wo_entrp">   -373.93381680 </i>
    <i name="e_0_energy">   -373.95921201 </i>
   </energy>
  </scstep>
  <scstep>
   <time name="diag">    1.94    1.94</time>
   <time name="diis">    5.43    5.44</time>
   <time name="orth">    0.49    0.49</time>
   <time name="total">    8.21    8.23</time>
   <energy>
    <i name="e_fr_energy">   -373.97089024 </i>
    <i name="e_wo_entrp">   -373.93120969 </i>
    <i name="e_0_energy">   -373.95766339 </i>
   </energy>
  </scstep>
  <scstep>
   <time name="diag">    1.93    1.93</time>
   <time name="diis">    5.42    5.43</time>
   <time name="orth">    0.49    0.49</time>
   <time name="total">    8.19    8.21</time>
   <energy>
    <i name="e_fr_energy">   -373.96950622 </i>
    <i name="e_wo_entrp">   -373.93092408 </i>
    <i name="e_0_energy">   -373.95664551 </i>
   </energy>
  </scstep>
  <scstep>
   <time name="diag">    1.93    1.93</time>
   <time name="diis">    5.45    5.46</time>
   <time name="orth">    0.49    0.49</time>
   <time name="total">    8.22    8.24</time>
   <energy>
    <i name="e_fr_energy">   -373.96925686 </i>
    <i name="e_wo_entrp">   -373.92994349 </i>
    <i name="e_0_energy">   -373.95615240 </i>
   </energy>
  </scstep>
  <scstep>
   <time name="diag">    1.93    1.94</time>
   <time name="diis">    5.42    5.44</time>
   <time name="orth">    0.49    0.49</time>
   <time name="total">    8.21    8.23</time>
   <energy>
    <i name="e_fr_energy">   -373.96911461 </i>
    <i name="e_wo_entrp">   -373.93027486 </i>
    <i name="e_0_energy">   -373.95616802 </i>
   </energy>
  </scstep>
  <scstep>
   <time name="diag">    1.94    1.94</time>
   <time name="diis">    5.19    5.21</time>
   <time name="orth">    0.49    0.49</time>
   <time name="total">    7.98    8.01</time>
   <energy>
    <i name="e_fr_energy">   -373.96906358 </i>
    <i name="e_wo_entrp">   -373.93021049 </i>
    <i name="e_0_energy">   -373.95611255 </i>
   </energy>
  </scstep>
  <scstep>
   <time name="diag">    1.92    1.93</time>
   <time name="diis">    3.80    3.81</time>
   <time name="orth">    0.49    0.49</time>
   <time name="total">    6.57    6.59</time>
   <energy>
    <i name="e_fr_energy">   -373.96908492 </i>
    <i name="e_wo_entrp">   -373.93005475 </i>
    <i name="e_0_energy">   -373.95607486 </i>
   </energy>
  </scstep>
  <scstep>
   <time name="diag">    1.92    1.92</time>
   <time name="diis">    3.32    3.33</time>
   <time name="orth">    0.49    0.49</time>
   <time name="total">    6.08    6.10</time>
   <energy>
    <i name="e_fr_energy">   -373.96911986 </i>
    <i name="e_wo_entrp">   -373.93027698 </i>
    <i name="e_0_energy">   -373.95617223 </i>
   </energy>
  </scstep>
  <scstep>
   <time name="diag">    1.93    1.93</time>
   <time name="diis">    3.18    3.19</time>
   <time name="orth">    0.49    0.49</time>
   <time name="total">    5.95    5.97</time>
   <energy>
    <i name="e_fr_energy">   -373.96913626 </i>
    <i name="e_wo_entrp">   -373.93024093 </i>
    <i name="e_0_energy">   -373.95617115 </i>
   </energy>
  </scstep>
  <scstep>
   <time name="diag">    1.93    1.94</time>
   <time name="diis">    3.10    3.10</time>
   <time name="orth">    0.49    0.49</time>
   <time name="total">    5.88    5.89</time>
   <energy>
    <i name="e_fr_energy">   -373.96914677 </i>
    <i name="e_wo_entrp">   -373.93024829 </i>
    <i name="e_0_energy">   -373.95618061 </i>
   </energy>
  </scstep>
  <scstep>
   <time name="diag">    1.93    1.93</time>
   <time name="diis">    2.96    2.97</time>
   <time name="orth">    0.49    0.49</time>
   <time name="total">    5.74    5.75</time>
   <energy>
    <i name="e_fr_energy">   -373.96917482 </i>
    <i name="e_wo_entrp">   -373.93027847 </i>
    <i name="e_0_energy">   -373.95620937 </i>
   </energy>
  </scstep>
  <scstep>
   <time name="diag">    1.92    1.93</time>
   <time name="diis">    2.54    2.54</time>
   <time name="orth">    0.49    0.49</time>
   <time name="total">    5.30    5.32</time>
   <energy>
    <i name="e_fr_energy">   -373.96919349 </i>
    <i name="e_wo_entrp">   -373.93029028 </i>
    <i name="e_0_energy">   -373.95622575 </i>
   </energy>
  </scstep>
  <scstep>
   <time name="diag">    1.91    1.92</time>
   <time name="diis">    2.79    2.80</time>
   <time name="orth">    0.49    0.49</time>
   <time name="total">    5.55    5.57</time>
   <energy>
    <i name="e_fr_energy">   -373.96922092 </i>
    <i name="e_wo_entrp">   -373.93031798 </i>
    <i name="e_0_energy">   -373.95625327 </i>
   </energy>
  </scstep>
  <scstep>
   <time name="diag">    1.93    1.94</time>
   <time name="diis">    2.63    2.63</time>
   <time name="orth">    0.49    0.49</time>
   <time name="total">    5.41    5.42</time>
   <energy>
    <i name="e_fr_energy">   -373.96926192 </i>
    <i name="e_wo_entrp">   -373.93036610 </i>
    <i name="e_0_energy">   -373.95629665 </i>
   </energy>
  </scstep>
  <scstep>
   <time name="diag">    1.93    1.93</time>
   <time name="diis">    2.32    2.33</time>
   <time name="orth">    0.49    0.49</time>
   <time name="total">    5.09    5.11</time>
   <energy>
    <i name="e_fr_energy">   -373.96928095 </i>
    <i name="e_wo_entrp">   -373.93038533 </i>
    <i name="e_0_energy">   -373.95631575 </i>
   </energy>
  </scstep>
  <scstep>
   <time name="diag">    1.92    1.92</time>
   <time name="diis">    2.31    2.32</time>
   <time name="orth">    0.49    0.49</time>
   <time name="total">    5.08    5.09</time>
   <energy>
    <i name="e_fr_energy">   -373.96929645 </i>
    <i name="e_wo_entrp">   -373.93040185 </i>
    <i name="e_0_energy">   -373.95633158 </i>
   </energy>
  </scstep>
  <scstep>
   <time name="diag">    1.92    1.92</time>
   <time name="diis">    2.49    2.50</time>
   <time name="orth">    0.49    0.49</time>
   <time name="total">    5.25    5.27</time>
   <energy>
    <i name="e_fr_energy">   -373.96931536 </i>
    <i name="e_wo_entrp">   -373.93041966 </i>
    <i name="e_0_energy">   -373.95635013 </i>
   </energy>
  </scstep>
  <scstep>
   <time name="diag">    1.93    1.94</time>
   <time name="diis">    2.30    2.31</time>
   <time name="orth">    0.49    0.49</time>
   <time name="total">    5.08    5.10</time>
   <energy>
    <i name="e_fr_energy">   -373.96932770 </i>
    <i name="e_wo_entrp">   -373.93043257 </i>
    <i name="e_0_energy">   -373.95636266 </i>
   </energy>
  </scstep>
  <scstep>
   <time name="diag">    1.92    1.93</time>
   <time name="diis">    2.32    2.32</time>
   <time name="orth">    0.49    0.49</time>
   <time name="total">    5.09    5.10</time>
   <energy>
    <i name="e_fr_energy">   -373.96933941 </i>
    <i name="e_wo_entrp">   -373.93044492 </i>
    <i name="e_0_energy">   -373.95637458 </i>
   </energy>
  </scstep>
  <scstep>
   <time name="diag">    1.92    1.92</time>
   <time name="diis">    2.22    2.23</time>
   <time name="orth">    0.49    0.49</time>
   <time name="total">    4.65    4.66</time>
   <energy>
    <i name="alphaZ">   1139.09295860 </i>
    <i name="ewald"> 405956.10958045 </i>
    <i name="hartreedc">-453372.56436812 </i>
    <i name="XCdc">    194.71247973 </i>
    <i name="pawpsdc">  56152.08238160 </i>
    <i name="pawaedc"> -54514.71690430 </i>
    <i name="eentropy">     -0.03889456 </i>
    <i name="bandstr">  -2604.29013021 </i>
    <i name="atom">  46675.64354841 </i>
    <i name="e_fr_energy">   -373.96934839 </i>
    <i name="e_wo_entrp">   -373.93045384 </i>
    <i name="e_0_energy">   -373.95638354 </i>
   </energy>
  </scstep>
  <structure>
   <crystal>
    <varray name="basis" >
     <v>      11.21440000       0.00000000       0.00000000 </v>
     <v>       5.60720000       9.71195529       0.00000000 </v>
     <v>       0.00000000       0.00000000      31.44560000 </v>
    </varray>
    <i name="volume">   3424.85826052 </i>
    <varray name="rec_basis" >
     <v>       0.08917107      -0.05148294       0.00000000 </v>
     <v>       0.00000000       0.10296588       0.00000000 </v>
     <v>       0.00000000       0.00000000       0.03180095 </v>
    </varray>
   </crystal>
   <varray name="positions" >
    <v>       0.08333000       0.33333000       0.39081000 </v>
    <v>       0.08333000       0.08333000       0.39081000 </v>
    <v>       0.33333000       0.33333000       0.39081000 </v>
    <v>       0.33333000       0.08333000       0.39081000 </v>
    <v>       0.41667000       0.16667000       0.46360000 </v>
    <v>       0.41667000       0.41667000       0.46360000 </v>
    <v>       0.16667000       0.16667000       0.46360000 </v>
    <v>       0.16667000       0.41667000       0.46360000 </v>
    <v>       0.24955177       0.00055301       0.53564274 </v>
    <v>       0.25079731       0.25018621       0.53538755 </v>
    <v>       0.50010427       0.00158462       0.53549233 </v>
    <v>       0.50081126       0.25265233       0.53850374 </v>
    <v>       0.08300426       0.33293012       0.60865938 </v>
    <v>       0.08167033       0.08435307       0.60890254 </v>
    <v>       0.32860472       0.33389338       0.60951651 </v>
    <v>       0.33297856       0.08370407       0.60879661 </v>
    <v>       0.08333000       0.83333000       0.39081000 </v>
    <v>       0.08333000       0.58333000       0.39081000 </v>
    <v>       0.33333000       0.83333000       0.39081000 </v>
    <v>       0.33333000       0.58333000       0.39081000 </v>
    <v>       0.41667000       0.66667000       0.46360000 </v>
    <v>       0.41667000       0.91667000       0.46360000 </v>
    <v>       0.16667000       0.66667000       0.46360000 </v>
    <v>       0.16667000       0.91667000       0.46360000 </v>
    <v>       0.24985069       0.50004523       0.53583805 </v>
    <v>       0.25017718       0.75008392       0.53524089 </v>
    <v>       0.50029826       0.49862909       0.53828206 </v>
    <v>       0.49982841       0.74964017       0.53536272 </v>
    <v>       0.08200379       0.83555519       0.60872299 </v>
    <v>       0.08110644       0.58469158       0.60900528 </v>
    <v>       0.33219710       0.83569169       0.60883669 </v>
    <v>       0.32662953       0.59006892       0.60901944 </v>
    <v>       0.58333000       0.33333000       0.39081000 </v>
    <v>       0.58333000       0.08333000       0.39081000 </v>
    <v>       0.83333000       0.33333000       0.39081000 </v>
    <v>       0.83333000       0.08333000       0.39081000 </v>
    <v>       0.91667000       0.16667000       0.46360000 </v>
    <v>       0.91667000       0.41667000       0.46360000 </v>
    <v>       0.66667000       0.16667000       0.46360000 </v>
    <v>       0.66667000       0.41667000       0.46360000 </v>
    <v>       0.74947308       0.00082745       0.53561723 </v>
    <v>       0.74472058       0.25326692       0.53893748 </v>
    <v>       0.99756106       0.00202270       0.53554431 </v>
    <v>       0.99800654       0.25035266       0.53549295 </v>
    <v>       0.57705027       0.34005536       0.62177974 </v>
    <v>       0.58330456       0.08214162       0.60950111 </v>
    <v>       0.83485130       0.33453466       0.60965019 </v>
    <v>       0.83343446       0.08269381       0.60963074 </v>
    <v>       0.58333000       0.83333000       0.39081000 </v>
    <v>       0.58333000       0.58333000       0.39081000 </v>
    <v>       0.83333000       0.83333000       0.39081000 </v>
    <v>       0.83333000       0.58333000       0.39081000 </v>
    <v>       0.91667000       0.66667000       0.46360000 </v>
    <v>       0.91667000       0.91667000       0.46360000 </v>
    <v>       0.66667000       0.66667000       0.46360000 </v>
    <v>       0.66667000       0.91667000       0.46360000 </v>
    <v>       0.74969470       0.50000282       0.53577283 </v>
    <v>       0.74982704       0.75023485       0.53567103 </v>
    <v>       0.00003291       0.49978396       0.53564181 </v>
    <v>      -0.00000005       0.75024651       0.53568804 </v>
    <v>       0.58227001       0.83462832       0.60864245 </v>
    <v>       0.58311801       0.58803479       0.60933950 </v>
    <v>       0.83239321       0.83468561       0.60877406 </v>
    <v>       0.83327616       0.58409664       0.60884857 </v>
    <v>       0.54405665       0.37542132       0.67158792 </v>
   </varray>
  </structure>
  <varray name="forces" >
   <v>      -0.00310926      -0.02673986      -0.05705753 </v>
   <v>       0.08895442      -0.05547557      -0.13984172 </v>
   <v>      -0.00336130      -0.02000770      -0.06251194 </v>
   <v>      -0.08046036      -0.05057579      -0.13205031 </v>
   <v>       0.09650337       0.04807275       0.03854095 </v>
   <v>       0.11861486      -0.06870725       0.40400330 </v>
   <v>      -0.01389405      -0.00897437       0.05717438 </v>
   <v>       0.04120024       0.01383964       0.00930568 </v>
   <v>      -0.00713769       0.00447306      -0.00939144 </v>
   <v>      -0.00932518       0.01421249       0.02500942 </v>
   <v>      -0.00471791      -0.01468568       0.02734444 </v>
   <v>       0.05080531       0.01794742      -0.05848830 </v>
   <v>      -0.00075789       0.02038303       0.02932869 </v>
   <v>       0.00360718       0.02298466      -0.00383947 </v>
   <v>       0.25403756       0.00547053       0.01622312 </v>
   <v>       0.00086590       0.02620709       0.00762426 </v>
   <v>       0.01685346       0.01973321      -0.05783502 </v>
   <v>       0.00607657       0.00020479      -0.04382156 </v>
   <v>       0.00158299       0.08807173      -0.12392545 </v>
   <v>       0.01657520       0.01404778      -0.06498495 </v>
   <v>       0.00796152      -0.09470513       0.00198346 </v>
   <v>      -0.01951909       0.03306700       0.04294253 </v>
   <v>       0.00202321      -0.04360557      -0.00125294 </v>
   <v>       0.00477234       0.04334374       0.05055690 </v>
   <v>       0.02390476       0.00327443       0.02736901 </v>
   <v>      -0.02299008      -0.01851465       0.05763545 </v>
   <v>       0.01007324      -0.04087978      -0.08144456 </v>
   <v>       0.00526542      -0.00845731       0.03766860 </v>
   <v>       0.00312797      -0.01942844       0.01608500 </v>
   <v>      -0.00324465       0.01423641      -0.01470236 </v>
   <v>      -0.01991270      -0.02849389      -0.01951104 </v>
   <v>       0.16311951      -0.24819725       0.08607293 </v>
   <v>       0.00412816      -0.00852186      -0.03644523 </v>
   <v>      -0.03114135       0.00228808      -0.06988912 </v>
   <v>       0.00542668      -0.02186830      -0.06119170 </v>
   <v>       0.02711920       0.00652966      -0.06452450 </v>
   <v>      -0.11476126       0.06248177       0.07884455 </v>
   <v>      -0.04095127       0.00714360       0.01612362 </v>
   <v>       0.01043799       0.17585206       0.42453299 </v>
   <v>      -0.12796283      -0.08528335       0.41989698 </v>
   <v>       0.00369214       0.04125693       0.05668117 </v>
   <v>      -0.04417032       0.00951351      -0.05685914 </v>
   <v>       0.01053585      -0.00804153       0.02092180 </v>
   <v>       0.01759344       0.01567023       0.02488294 </v>
   <v>      -0.09997512       0.20056161       0.12418647 </v>
   <v>       0.07230266       0.21208516       0.01750282 </v>
   <v>      -0.23911206      -0.00296494       0.01623718 </v>
   <v>      -0.08552189       0.19744904       0.00790074 </v>
   <v>      -0.01731415       0.01515366      -0.05549239 </v>
   <v>      -0.01652293       0.02262256      -0.06906205 </v>
   <v>      -0.00053130      -0.00007164      -0.04939011 </v>
   <v>      -0.00595551       0.00147600      -0.04654609 </v>
   <v>       0.00093730       0.00164429       0.05855726 </v>
   <v>      -0.01665835       0.02555486       0.01581659 </v>
   <v>      -0.00777081      -0.03688732       0.00719036 </v>
   <v>       0.01510632       0.02564484       0.00719262 </v>
   <v>      -0.01911420       0.00477263       0.03464243 </v>
   <v>      -0.00637353      -0.00372325       0.00395448 </v>
   <v>      -0.00084539       0.00470261       0.00723348 </v>
   <v>      -0.00665492       0.00376866       0.00361344 </v>
   <v>      -0.00303574       0.00585640       0.03367717 </v>
   <v>      -0.15949304      -0.21095572       0.03879649 </v>
   <v>      -0.00993745      -0.01821509       0.01736863 </v>
   <v>       0.00175241       0.03042657       0.00827865 </v>
   <v>       0.15727642      -0.31804328      -0.99884204 </v>
  </varray>
  <varray name="stress" >
   <v>     -21.99149359       0.09733847       0.13913655 </v>
   <v>       0.09733847     -21.71333424      -0.28366431 </v>
   <v>       0.13913655      -0.28366431     -20.99719699 </v>
  </varray>
  <energy>
   <i name="e_fr_energy">   -373.96934839 </i>
   <i name="e_wo_entrp">   -373.95638354 </i>
   <i name="e_0_energy">     -0.03889456 </i>
  </energy>
  <time name="totalsc">  175.53  176.02</time>
 </calculation>
 <calculation>
  <scstep>
   <time name="dav">   12.22   12.26</time>
   <time name="total">   12.58   12.62</time>
   <energy>
    <i name="alphaZ">   1139.09295860 </i>
    <i name="ewald"> 405891.56028394 </i>
    <i name="hartreedc">-453307.73004768 </i>
    <i name="XCdc">    194.73690212 </i>
    <i name="pawpsdc">  56152.07483295 </i>
    <i name="pawaedc"> -54514.70941322 </i>
    <i name="eentropy">     -0.03861982 </i>
    <i name="bandstr">  -2604.61632867 </i>
    <i name="atom">  46675.64354841 </i>
    <i name="e_fr_energy">   -373.98588337 </i>
    <i name="e_wo_entrp">   -373.94726355 </i>
    <i name="e_0_energy">   -373.97301009 </i>
   </energy>
  </scstep>
  <scstep>
   <time name="diag">    1.92    1.93</time>
   <time name="diis">    5.45    5.47</time>
   <time name="orth">    0.49    0.49</time>
   <time name="total">    8.23    8.25</time>
   <energy>
    <i name="e_fr_energy">   -373.99131380 </i>
    <i name="e_wo_entrp">   -373.95252167 </i>
    <i name="e_0_energy">   -373.97838309 </i>
   </energy>
  </scstep>
  <scstep>
   <time name="diag">    1.94    1.94</time>
   <time name="diis">    5.49    5.51</time>
   <time name="orth">    0.49    0.50</time>
   <time name="total">    8.28    8.30</time>
   <energy>
    <i name="e_fr_energy">   -374.00878147 </i>
    <i name="e_wo_entrp">   -373.97039105 </i>
    <i name="e_0_energy">   -373.99598467 </i>
   </energy>
  </scstep>
  <scstep>
   <time name="diag">    1.93    1.93</time>
   <time name="diis">    5.46    5.47</time>
   <time name="orth">    0.49    0.49</time>
   <time name="total">    8.23    8.26</time>
   <energy>
    <i name="e_fr_energy">   -373.99272690 </i>
    <i name="e_wo_entrp">   -373.95360454 </i>
    <i name="e_0_energy">   -373.97968612 </i>
   </energy>
  </scstep>
  <scstep>
   <time name="diag">    1.93    1.93</time>
   <time name="diis">    5.46    5.47</time>
   <time name="orth">    0.49    0.49</time>
   <time name="total">    8.23    8.25</time>
   <energy>
    <i name="e_fr_energy">   -373.99079246 </i>
    <i name="e_wo_entrp">   -373.95196926 </i>
    <i name="e_0_energy">   -373.97785140 </i>
   </energy>
  </scstep>
  <scstep>
   <time name="diag">    1.93    1.93</time>
   <time name="diis">    5.44    5.45</time>
   <time name="orth">    0.49    0.49</time>
   <time name="total">    8.21    8.23</time>
   <energy>
    <i name="e_fr_energy">   -373.99089705 </i>
    <i name="e_wo_entrp">   -373.95265703 </i>
    <i name="e_0_energy">   -373.97815038 </i>
   </energy>
  </scstep>
  <scstep>
   <time name="diag">    1.93    1.94</time>
   <time name="diis">    5.43    5.44</time>
   <time name="orth">    0.49    0.49</time>
   <time name="total">    8.20    8.23</time>
   <energy>
    <i name="e_fr_energy">   -373.99074805 </i>
    <i name="e_wo_entrp">   -373.95168928 </i>
    <i name="e_0_energy">   -373.97772846 </i>
   </energy>
  </scstep>
  <scstep>
   <time name="diag">    1.92    1.92</time>
   <time name="diis">    5.44    5.45</time>
   <time name="orth">    0.49    0.49</time>
   <time name="total">    8.20    8.22</time>
   <energy>
    <i name="e_fr_energy">   -373.99062766 </i>
    <i name="e_wo_entrp">   -373.95209829 </i>
    <i name="e_0_energy">   -373.97778454 </i>
   </energy>
  </scstep>
  <scstep>
   <time name="diag">    1.92    1.93</time>
   <time name="diis">    3.43    3.44</time>
   <time name="orth">    0.49    0.49</time>
   <time name="total">    6.20    6.22</time>
   <energy>
    <i name="e_fr_energy">   -373.99060894 </i>
    <i name="e_wo_entrp">   -373.95191616 </i>
    <i name="e_0_energy">   -373.97771134 </i>
   </energy>
  </scstep>
  <scstep>
   <time name="diag">    1.93    1.94</time>
   <time name="diis">    3.16    3.16</time>
   <time name="orth">    0.49    0.49</time>
   <time name="total">    5.60    5.62</time>
   <energy>
    <i name="alphaZ">   1139.09295860 </i>
    <i name="ewald"> 405891.56028394 </i>
    <i name="hartreedc">-453308.17704759 </i>
    <i name="XCdc">    194.75504227 </i>
    <i name="pawpsdc">  56155.23229492 </i>
    <i name="pawaedc"> -54517.88319313 </i>
    <i name="eentropy">     -0.03866440 </i>
    <i name="bandstr">  -2604.17583015 </i>
    <i name="atom">  46675.64354841 </i>
    <i name="e_fr_energy">   -373.99060712 </i>
    <i name="e_wo_entrp">   -373.95194272 </i>
    <i name="e_0_energy">   -373.97771898 </i>
   </energy>
  </scstep>
  <structure>
   <crystal>
    <varray name="basis" >
     <v>      11.21440000       0.00000000       0.00000000 </v>
     <v>       5.60720000       9.71195529       0.00000000 </v>
     <v>       0.00000000       0.00000000      31.44560000 </v>
    </varray>
    <i name="volume">   3424.85826052 </i>
    <varray name="rec_basis" >
     <v>       0.08917107      -0.05148294       0.00000000 </v>
     <v>       0.00000000       0.10296588       0.00000000 </v>
     <v>       0.00000000       0.00000000       0.03180095 </v>
    </varray>
   </crystal>
   <varray name="positions" >
    <v>       0.08333000       0.33333000       0.39081000 </v>
    <v>       0.08333000       0.08333000       0.39081000 </v>
    <v>       0.33333000       0.33333000       0.39081000 </v>
    <v>       0.33333000       0.08333000       0.39081000 </v>
    <v>       0.41667000       0.16667000       0.46360000 </v>
    <v>       0.41667000       0.41667000       0.46360000 </v>
    <v>       0.16667000       0.16667000       0.46360000 </v>
    <v>       0.16667000       0.41667000       0.46360000 </v>
    <v>       0.24951221       0.00059495       0.53564318 </v>
    <v>       0.25070656       0.25018651       0.53537995 </v>
    <v>       0.50010883       0.00151467       0.53549107 </v>
    <v>       0.50084159       0.25268591       0.53846232 </v>
    <v>       0.08295495       0.33295677       0.60868197 </v>
    <v>       0.08173684       0.08434176       0.60890133 </v>
    <v>       0.32894507       0.33394955       0.60952388 </v>
    <v>       0.33293811       0.08369822       0.60880711 </v>
    <v>       0.08333000       0.83333000       0.39081000 </v>
[...]
       <r>    -8.8462     5.2229     4.9591 </r>
       <r>    -8.7916    13.1141     5.6756 </r>
       <r>    -8.7369    17.4117     6.6270 </r>
       <r>    -8.6823    14.2050     7.4031 </r>
       <r>    -8.6277     6.8742     7.7788 </r>
       <r>    -8.5730     4.1660     8.0064 </r>
       <r>    -8.5184     7.4436     8.4131 </r>
       <r>    -8.4637    11.6922     9.0520 </r>
       <r>    -8.4091    11.8385     9.6988 </r>
       <r>    -8.3545     5.7101    10.0108 </r>
       <r>    -8.2998    -0.0972    10.0055 </r>
       <r>    -8.2452    -1.7784     9.9083 </r>
       <r>    -8.1905     2.1510    10.0259 </r>
       <r>    -8.1359    15.7369    10.8857 </r>
       <r>    -8.0813    29.5183    12.4986 </r>
       <r>    -8.0266    26.0739    13.9233 </r>
       <r>    -7.9720    12.1060    14.5847 </r>
       <r>    -7.9173     7.9065    15.0168 </r>
       <r>    -7.8627    10.7120    15.6021 </r>
       <r>    -7.8081     7.4073    16.0068 </r>
       <r>    -7.7534     2.1765    16.1257 </r>
       <r>    -7.6988     4.1213    16.3509 </r>
       <r>    -7.6441    17.1665    17.2889 </r>
       <r>    -7.5895    38.6593    19.4012 </r>
       <r>    -7.5349    51.8673    22.2352 </r>
       <r>    -7.4802    50.7270    25.0069 </r>
       <r>    -7.4256    48.2687    27.6443 </r>
       <r>    -7.3709    41.7884    29.9276 </r>
       <r>    -7.3163    30.0708    31.5707 </r>
       <r>    -7.2617    33.9267    33.4245 </r>
       <r>    -7.2070    57.4777    36.5650 </r>
       <r>    -7.1524    74.8493    40.6548 </r>
       <r>    -7.0977    62.2137    44.0541 </r>
       <r>    -7.0431    41.0108    46.2949 </r>
       <r>    -6.9885    43.6404    48.6794 </r>
       <r>    -6.9338    55.4614    51.7098 </r>
       <r>    -6.8792    60.7769    55.0307 </r>
       <r>    -6.8245    66.0503    58.6397 </r>
       <r>    -6.7699    66.2307    62.2585 </r>
       <r>    -6.7153    67.1149    65.9256 </r>
       <r>    -6.6606    81.5683    70.3825 </r>
       <r>    -6.6060    99.0620    75.7952 </r>
       <r>    -6.5513   103.6371    81.4580 </r>
       <r>    -6.4967   103.0097    87.0864 </r>
       <r>    -6.4421    97.1361    92.3939 </r>
       <r>    -6.3874    86.2097    97.1044 </r>
       <r>    -6.3328    90.0112   102.0226 </r>
       <r>    -6.2781   103.3676   107.6705 </r>
       <r>    -6.2235    97.7165   113.0098 </r>
       <r>    -6.1689    79.4362   117.3501 </r>
       <r>    -6.1142    71.4910   121.2564 </r>
       <r>    -6.0596    67.8760   124.9651 </r>
       <r>    -6.0049    66.4459   128.5957 </r>
       <r>    -5.9503    67.0695   132.2604 </r>
       <r>    -5.8957    57.7842   135.4177 </r>
       <r>    -5.8410    38.8095   137.5382 </r>
       <r>    -5.7864    32.7961   139.3302 </r>
       <r>    -5.7317    55.6238   142.3695 </r>
       <r>    -5.6771    88.5371   147.2071 </r>
       <r>    -5.6225   103.7188   152.8743 </r>
       <r>    -5.5678    97.1564   158.1829 </r>
       <r>    -5.5132    83.2768   162.7331 </r>
       <r>    -5.4585    74.2268   166.7889 </r>
       <r>    -5.4039    73.2328   170.7903 </r>
       <r>    -5.3493    78.3365   175.0706 </r>
       <r>    -5.2946    84.1179   179.6668 </r>
       <r>    -5.2400    90.8763   184.6323 </r>
       <r>    -5.1853    95.2717   189.8379 </r>
       <r>    -5.1307    88.9828   194.6999 </r>
       <r>    -5.0761    78.6571   198.9977 </r>
       <r>    -5.0214    77.2641   203.2194 </r>
       <r>    -4.9668    74.9296   207.3135 </r>
       <r>    -4.9121    61.3593   210.6662 </r>
       <r>    -4.8575    55.2711   213.6862 </r>
       <r>    -4.8029    73.2897   217.6907 </r>
       <r>    -4.7482    93.0946   222.7774 </r>
       <r>    -4.6936    94.5425   227.9432 </r>
       <r>    -4.6389    94.2778   233.0945 </r>
       <r>    -4.5843   108.4136   239.0182 </r>
       <r>    -4.5297   125.8958   245.8971 </r>
       <r>    -4.4750   135.8079   253.3176 </r>
       <r>    -4.4204   135.7143   260.7330 </r>
       <r>    -4.3657   120.0535   267.2928 </r>
       <r>    -4.3111    95.0217   272.4847 </r>
       <r>    -4.2565    90.0912   277.4073 </r>
       <r>    -4.2018   120.1348   283.9714 </r>
       <r>    -4.1472   154.6288   292.4203 </r>
       <r>    -4.0925   157.0855   301.0034 </r>
       <r>    -4.0379   146.9818   309.0345 </r>
       <r>    -3.9833   152.4255   317.3630 </r>
       <r>    -3.9286   150.9051   325.6084 </r>
       <r>    -3.8740   142.1375   333.3748 </r>
       <r>    -3.8193   144.2302   341.2555 </r>
       <r>    -3.7647   146.7672   349.2748 </r>
       <r>    -3.7101   147.0819   357.3114 </r>
       <r>    -3.6554   147.7070   365.3820 </r>
       <r>    -3.6008   128.4070   372.3982 </r>
       <r>    -3.5461    93.0929   377.4847 </r>
       <r>    -3.4915    76.4928   381.6643 </r>
       <r>    -3.4369    76.8263   385.8621 </r>
       <r>    -3.3822    74.6977   389.9435 </r>
       <r>    -3.3276    75.3803   394.0623 </r>
       <r>    -3.2729    78.2398   398.3373 </r>
       <r>    -3.2183    70.0328   402.1639 </r>
       <r>    -3.1637    57.8804   405.3265 </r>
       <r>    -3.1090    72.1949   409.2712 </r>
       <r>    -3.0544   116.0066   415.6098 </r>
       <r>    -2.9998   153.1872   423.9799 </r>
       <r>    -2.9451   158.7865   432.6559 </r>
       <r>    -2.8905   133.3538   439.9424 </r>
       <r>    -2.8358    98.8064   445.3411 </r>
       <r>    -2.7812    81.0620   449.7703 </r>
       <r>    -2.7266    75.9693   453.9213 </r>
       <r>    -2.6719    75.4191   458.0422 </r>
       <r>    -2.6173    77.1429   462.2573 </r>
       <r>    -2.5626    78.1607   466.5279 </r>
       <r>    -2.5080    84.8722   471.1653 </r>
       <r>    -2.4534    89.4638   476.0536 </r>
       <r>    -2.3987    81.2041   480.4906 </r>
       <r>    -2.3441    81.5703   484.9476 </r>
       <r>    -2.2894   100.5507   490.4417 </r>
       <r>    -2.2348   107.2219   496.3002 </r>
       <r>    -2.1802    99.4041   501.7317 </r>
       <r>    -2.1255   116.8271   508.1151 </r>
       <r>    -2.0709   148.2789   516.2170 </r>
       <r>    -2.0162   149.1631   524.3672 </r>
       <r>    -1.9616   135.1127   531.7498 </r>
       <r>    -1.9070   120.9513   538.3585 </r>
       <r>    -1.8523   109.0032   544.3144 </r>
       <r>    -1.7977   104.0392   549.9991 </r>
       <r>    -1.7430    75.7400   554.1375 </r>
       <r>    -1.6884    44.3050   556.5584 </r>
       <r>    -1.6338    57.1906   559.6832 </r>
       <r>    -1.5791    95.6454   564.9093 </r>
       <r>    -1.5245   115.9100   571.2426 </r>
       <r>    -1.4698   116.4721   577.6066 </r>
       <r>    -1.4152   120.5895   584.1956 </r>
       <r>    -1.3606   112.5218   590.3438 </r>
       <r>    -1.3059    86.9709   595.0958 </r>
       <r>    -1.2513    84.7051   599.7241 </r>
       <r>    -1.1966   107.5045   605.5981 </r>
       <r>    -1.1420   122.2058   612.2754 </r>
       <r>    -1.0874   137.6490   619.7965 </r>
       <r>    -1.0327   163.1976   628.7136 </r>
       <r>    -0.9781   170.2056   638.0136 </r>
       <r>    -0.9234   153.1279   646.3805 </r>
       <r>    -0.8688   125.3321   653.2286 </r>
       <r>    -0.8142   104.6693   658.9478 </r>
       <r>    -0.7595   104.5541   664.6606 </r>
       <r>    -0.7049   103.3027   670.3050 </r>
       <r>    -0.6502    88.3899   675.1346 </r>
       <r>    -0.5956    61.9369   678.5188 </r>
       <r>    -0.5410    28.3075   680.0656 </r>
       <r>    -0.4863     8.7874   680.5457 </r>
       <r>    -0.4317    12.1791   681.2112 </r>
       <r>    -0.3770    23.8102   682.5121 </r>
       <r>    -0.3224    28.5724   684.0733 </r>
       <r>    -0.2678    24.5336   685.4138 </r>
       <r>    -0.2131    19.6122   686.4855 </r>
       <r>    -0.1585    17.5437   687.4440 </r>
       <r>    -0.1038    16.0945   688.3234 </r>
       <r>    -0.0492    18.4768   689.3330 </r>
       <r>     0.0054    26.9040   690.8030 </r>
       <r>     0.0601    28.3244   692.3507 </r>
       <r>     0.1147    22.4701   693.5784 </r>
       <r>     0.1694    23.9726   694.8883 </r>
       <r>     0.2240    33.8943   696.7403 </r>
       <r>     0.2786    40.7850   698.9688 </r>
       <r>     0.3333    33.3446   700.7907 </r>
       <r>     0.3879    20.8802   701.9316 </r>
       <r>     0.4426    18.0057   702.9154 </r>
       <r>     0.4972    17.7150   703.8834 </r>
       <r>     0.5518    11.8301   704.5298 </r>
       <r>     0.6065     6.8065   704.9017 </r>
       <r>     0.6611     5.5791   705.2065 </r>
       <r>     0.7158     3.7132   705.4094 </r>
       <r>     0.7704     4.0770   705.6322 </r>
       <r>     0.8250    10.5104   706.2064 </r>
       <r>     0.8797    16.7615   707.1223 </r>
       <r>     0.9343    22.5583   708.3549 </r>
       <r>     0.9890    28.1116   709.8909 </r>
       <r>     1.0436    26.7753   711.3539 </r>
       <r>     1.0982    22.9995   712.6106 </r>
       <r>     1.1529    22.6286   713.8470 </r>
       <r>     1.2075    22.9086   715.0987 </r>
       <r>     1.2622    26.6018   716.5522 </r>
       <r>     1.3168    35.6555   718.5004 </r>
       <r>     1.3714    34.7449   720.3989 </r>
       <r>     1.4261    24.6614   721.7464 </r>
       <r>     1.4807    22.7108   722.9873 </r>
       <r>     1.5354    23.6895   724.2817 </r>
       <r>     1.5900    20.6273   725.4088 </r>
       <r>     1.6446    16.3539   726.3023 </r>
       <r>     1.6993    12.4727   726.9839 </r>
       <r>     1.7539    13.2032   727.7053 </r>
       <r>     1.8086    18.7709   728.7309 </r>
       <r>     1.8632    18.1581   729.7231 </r>
       <r>     1.9178     8.8729   730.2079 </r>
       <r>     1.9725     8.3485   730.6640 </r>
       <r>     2.0271    24.1385   731.9830 </r>
       <r>     2.0818    35.9282   733.9461 </r>
       <r>     2.1364    24.2618   735.2717 </r>
       <r>     2.1910     5.6570   735.5808 </r>
       <r>     2.2457     4.0659   735.8030 </r>
       <r>     2.3003    17.1953   736.7425 </r>
       <r>     2.3550    29.6620   738.3633 </r>
       <r>     2.4096    30.0451   740.0049 </r>
       <r>     2.4642    22.3869   741.2281 </r>
       <r>     2.5189    15.9646   742.1004 </r>
       <r>     2.5735    14.8464   742.9116 </r>
       <r>     2.6281    16.3520   743.8051 </r>
       <r>     2.6828    17.8329   744.7795 </r>
       <r>     2.7374    22.6562   746.0174 </r>
       <r>     2.7921    24.7534   747.3700 </r>
       <r>     2.8467    21.8136   748.5618 </r>
       <r>     2.9013    23.3614   749.8383 </r>
       <r>     2.9560    25.9741   751.2575 </r>
       <r>     3.0106    23.1067   752.5201 </r>
       <r>     3.0653    15.8119   753.3840 </r>
       <r>     3.1199     9.7863   753.9188 </r>
       <r>     3.1745    10.8721   754.5128 </r>
       <r>     3.2292    14.8032   755.3216 </r>
       <r>     3.2838    24.0695   756.6368 </r>
       <r>     3.3385    39.2353   758.7806 </r>
       <r>     3.3931    36.7444   760.7883 </r>
       <r>     3.4477    16.4532   761.6873 </r>
       <r>     3.5024     8.4552   762.1493 </r>
       <r>     3.5570     9.9153   762.6911 </r>
       <r>     3.6117     5.0313   762.9660 </r>
       <r>     3.6663     1.6858   763.0581 </r>
       <r>     3.7209     8.0922   763.5003 </r>
       <r>     3.7756    15.8818   764.3680 </r>
       <r>     3.8302    13.2815   765.0937 </r>
       <r>     3.8849     6.2658   765.4361 </r>
       <r>     3.9395     8.3953   765.8948 </r>
       <r>     3.9941    13.6349   766.6398 </r>
       <r>     4.0488     9.9723   767.1847 </r>
       <r>     4.1034     5.0483   767.4605 </r>
       <r>     4.1581     5.3470   767.7527 </r>
       <r>     4.2127     4.1038   767.9769 </r>
       <r>     4.2673     0.9122   768.0268 </r>
       <r>     4.3220    -0.2944   768.0107 </r>
       <r>     4.3766    -0.1656   768.0016 </r>
       <r>     4.4313    -0.0278   768.0001 </r>
       <r>     4.4859    -0.0022   768.0000 </r>
       <r>     4.5405    -0.0001   768.0000 </r>
       <r>     4.5952    -0.0000   768.0000 </r>
       <r>     4.6498    -0.0000   768.0000 </r>
       <r>     4.7045    -0.0000   768.0000 </r>
       <r>     4.7591    -0.0000   768.0000 </r>
       <r>     4.8137     0.0000   768.0000 </r>
       <r>     4.8684     0.0000   768.0000 </r>
       <r>     4.9230     0.0000   768.0000 </r>
       <r>     4.9777     0.0000   768.0000 </r>
       <r>     5.0323     0.0000   768.0000 </r>
       <r>     5.0869     0.0000   768.0000 </r>
       <r>     5.1416     0.0000   768.0000 </r>
      </set>
     </set>
    </array>
   </total>
  </dos>
 </calculation>
 <structure name="finalpos" >
  <crystal>
   <varray name="basis" >
    <v>      11.21440000       0.00000000       0.00000000 </v>
    <v>       5.60720000       9.71195529       0.00000000 </v>
    <v>       0.00000000       0.00000000      31.44560000 </v>
   </varray>
   <i name="volume">   3424.85826052 </i>
   <varray name="rec_basis" >
    <v>       0.08917107      -0.05148294       0.00000000 </v>
    <v>       0.00000000       0.10296588       0.00000000 </v>
    <v>       0.00000000       0.00000000       0.03180095 </v>
   </varray>
  </crystal>
  <varray name="positions" >
   <v>       0.08333000       0.33333000       0.39081000 </v>
   <v>       0.08333000       0.08333000       0.39081000 </v>
   <v>       0.33333000       0.33333000       0.39081000 </v>
   <v>       0.33333000       0.08333000       0.39081000 </v>
   <v>       0.41667000       0.16667000       0.46360000 </v>
   <v>       0.41667000       0.41667000       0.46360000 </v>
   <v>       0.16667000       0.16667000       0.46360000 </v>
   <v>       0.16667000       0.41667000       0.46360000 </v>
   <v>       0.24997144       0.00003304       0.53571396 </v>
   <v>       0.25031769       0.25009460       0.53565278 </v>
   <v>       0.50000544       0.00042157       0.53567741 </v>
   <v>       0.50071783       0.25090443       0.53659324 </v>
   <v>       0.08311689       0.33356088       0.60894570 </v>
   <v>       0.08338460       0.08345964       0.60896944 </v>
   <v>       0.33255427       0.33326029       0.60890124 </v>
   <v>       0.33309249       0.08339233       0.60897306 </v>
   <v>       0.08333000       0.83333000       0.39081000 </v>
   <v>       0.08333000       0.58333000       0.39081000 </v>
   <v>       0.33333000       0.83333000       0.39081000 </v>
   <v>       0.33333000       0.58333000       0.39081000 </v>
   <v>       0.41667000       0.66667000       0.46360000 </v>
   <v>       0.41667000       0.91667000       0.46360000 </v>
   <v>       0.16667000       0.66667000       0.46360000 </v>
   <v>       0.16667000       0.91667000       0.46360000 </v>
   <v>       0.24993120       0.50007500       0.53576754 </v>
   <v>       0.25029847       0.74966507       0.53564451 </v>
   <v>       0.50076237       0.49832483       0.53663987 </v>
   <v>       0.49998050       0.74964490       0.53563681 </v>
   <v>       0.08308521       0.83354879       0.60895958 </v>
   <v>       0.08310851       0.58354903       0.60893988 </v>
   <v>       0.33313662       0.83372187       0.60894331 </v>
   <v>       0.33247438       0.58455413       0.60890477 </v>
   <v>       0.58333000       0.33333000       0.39081000 </v>
   <v>       0.58333000       0.08333000       0.39081000 </v>
   <v>       0.83333000       0.33333000       0.39081000 </v>
   <v>       0.83333000       0.08333000       0.39081000 </v>
   <v>       0.91667000       0.16667000       0.46360000 </v>
   <v>       0.91667000       0.41667000       0.46360000 </v>
   <v>       0.66667000       0.16667000       0.46360000 </v>
   <v>       0.66667000       0.41667000       0.46360000 </v>
   <v>       0.74990959       0.00009917       0.53576565 </v>
   <v>       0.74825409       0.25093738       0.53660507 </v>
   <v>       0.99952488       0.00043911       0.53566414 </v>
   <v>       0.99954300       0.25006111       0.53564561 </v>
   <v>       0.58315787       0.33360763       0.61347593 </v>
   <v>       0.58280289       0.08299644       0.60892252 </v>
   <v>       0.83404510       0.33320672       0.60890214 </v>
   <v>       0.83403792       0.08291616       0.60892486 </v>
   <v>       0.58333000       0.83333000       0.39081000 </v>
   <v>       0.58333000       0.58333000       0.39081000 </v>
   <v>       0.83333000       0.83333000       0.39081000 </v>
   <v>       0.83333000       0.58333000       0.39081000 </v>
   <v>       0.91667000       0.66667000       0.46360000 </v>
   <v>       0.91667000       0.91667000       0.46360000 </v>
   <v>       0.66667000       0.66667000       0.46360000 </v>
   <v>       0.66667000       0.91667000       0.46360000 </v>
   <v>       0.74990172       0.50009180       0.53577685 </v>
   <v>       0.74989390       0.75007927       0.53573603 </v>
   <v>       0.00000057       0.49994544       0.53573777 </v>
   <v>      -0.00003009       0.75011975       0.53574921 </v>
   <v>       0.58334176       0.83345659       0.60897144 </v>
   <v>       0.58288851       0.58448888       0.60890891 </v>
   <v>       0.83313200       0.83354025       0.60894503 </v>
   <v>       0.83328288       0.58352949       0.60894069 </v>
   <v>       0.58396750       0.33259602       0.66299421 </v>
  </varray>
  <varray name="selective"  type="logical" >
   <v type="logical" >  F  F  F </v>
   <v type="logical" >  F  F  F </v>
   <v type="logical" >  F  F  F </v>
   <v type="logical" >  F  F  F </v>
   <v type="logical" >  F  F  F </v>
   <v type="logical" >  F  F  F </v>
   <v type="logical" >  F  F  F </v>
   <v type="logical" >  F  F  F </v>
   <v type="logical" >  T  T  T </v>
   <v type="logical" >  T  T  T </v>
   <v type="logical" >  T  T  T </v>
   <v type="logical" >  T  T  T </v>
   <v type="logical" >  T  T  T </v>
   <v type="logical" >  T  T  T </v>
   <v type="logical" >  T  T  T </v>
   <v type="logical" >  T  T  T </v>
   <v type="logical" >  F  F  F </v>
   <v type="logical" >  F  F  F </v>
   <v type="logical" >  F  F  F </v>
   <v type="logical" >  F  F  F </v>
   <v type="logical" >  F  F  F </v>
   <v type="logical" >  F  F  F </v>
   <v type="logical" >  F  F  F </v>
   <v type="logical" >  F  F  F </v>
   <v type="logical" >  T  T  T </v>
   <v type="logical" >  T  T  T </v>
   <v type="logical" >  T  T  T </v>
   <v type="logical" >  T  T  T </v>
   <v type="logical" >  T  T  T </v>
   <v type="logical" >  T  T  T </v>
   <v type="logical" >  T  T  T </v>
   <v type="logical" >  T  T  T </v>
   <v type="logical" >  F  F  F </v>
   <v type="logical" >  F  F  F </v>
   <v type="logical" >  F  F  F </v>
   <v type="logical" >  F  F  F </v>
   <v type="logical" >  F  F  F </v>
   <v type="logical" >  F  F  F </v>
   <v type="logical" >  F  F  F </v>
   <v type="logical" >  F  F  F </v>
   <v type="logical" >  T  T  T </v>
   <v type="logical" >  T  T  T </v>
   <v type="logical" >  T  T  T </v>
   <v type="logical" >  T  T  T </v>
   <v type="logical" >  T  T  T </v>
   <v type="logical" >  T  T  T </v>
   <v type="logical" >  T  T  T </v>
   <v type="logical" >  T  T  T </v>
   <v type="logical" >  F  F  F </v>
   <v type="logical" >  F  F  F </v>
   <v type="logical" >  F  F  F </v>
   <v type="logical" >  F  F  F </v>
   <v type="logical" >  F  F  F </v>
   <v type="logical" >  F  F  F </v>
   <v type="logical" >  F  F  F </v>
   <v type="logical" >  F  F  F </v>
   <v type="logical" >  T  T  T </v>
   <v type="logical" >  T  T  T </v>
   <v type="logical" >  T  T  T </v>
   <v type="logical" >  T  T  T </v>
   <v type="logical" >  T  T  T </v>
   <v type="logical" >  T  T  T </v>
   <v type="logical" >  T  T  T </v>
   <v type="logical" >  T  T  T </v>
   <v type="logical" >  T  T  T </v>
  </varray>
  <nose>
   <v>      -3.00000000       0.00000000       0.00010000       0.00010000 </v>
  </nose>
 </structure>
</modeling>
