Pt                                      
           1
    11.214400    0.000000    0.000000
     5.607200    9.711955    0.000000
     0.000000    0.000000   31.445600
   Pt   H 
  64   1
Direct configuration=     1
   0.08333000  0.33333000  0.39081000
   0.08333000  0.08333000  0.39081000
   0.33333000  0.33333000  0.39081000
   0.33333000  0.08333000  0.39081000
   0.41667000  0.16667000  0.46360000
   0.41667000  0.41667000  0.46360000
   0.16667000  0.16667000  0.46360000
   0.16667000  0.41667000  0.46360000
   0.24971507  0.00037990  0.53564091
   0.25117183  0.25018498  0.53541892
   0.50008547  0.00187327  0.53549755
   0.50068611  0.25251373  0.53867466
   0.08320776  0.33282012  0.60856613
   0.08139585  0.08439974  0.60890750
   0.32720012  0.33366156  0.60948607
   0.33314546  0.08372823  0.60875326
   0.08333000  0.83333000  0.39081000
   0.08333000  0.58333000  0.39081000
   0.33333000  0.83333000  0.39081000
   0.33333000  0.58333000  0.39081000
   0.41667000  0.66667000  0.46360000
   0.41667000  0.91667000  0.46360000
   0.16667000  0.66667000  0.46360000
   0.16667000  0.91667000  0.46360000
   0.24928521  0.50020669  0.53579147
   0.25026434  0.75001964  0.53510984
   0.50021727  0.49869409  0.53847547
   0.49996554  0.74956048  0.53537829
   0.08220236  0.83533040  0.60865688
   0.08143313  0.58454078  0.60899540
   0.33232638  0.83568412  0.60885261
   0.32469634  0.59197936  0.60888351
   0.58333000  0.33333000  0.39081000
   0.58333000  0.08333000  0.39081000
   0.83333000  0.33333000  0.39081000
   0.83333000  0.08333000  0.39081000
   0.91667000  0.16667000  0.46360000
   0.91667000  0.41667000  0.46360000
   0.66667000  0.16667000  0.46360000
   0.66667000  0.41667000  0.46360000
   0.74947884  0.00072045  0.53555862
   0.74510624  0.25315146  0.53911439
   0.99725310  0.00231418  0.53553908
   0.99759160  0.25032683  0.53548037
   0.57992020  0.33676226  0.61887504
   0.58352972  0.08099106  0.60947022
   0.83601410  0.33444256  0.60962124
   0.83429518  0.08180393  0.60960348
   0.58333000  0.83333000  0.39081000
   0.58333000  0.58333000  0.39081000
   0.83333000  0.83333000  0.39081000
   0.83333000  0.58333000  0.39081000
   0.91667000  0.66667000  0.46360000
   0.91667000  0.91667000  0.46360000
   0.66667000  0.66667000  0.46360000
   0.66667000  0.91667000  0.46360000
   0.75003753  0.50017100  0.53576074
   0.74956944  0.75015013  0.53571802
   0.00012859  0.49969052  0.53567504
   0.00049983  0.74996531  0.53572255
   0.58232651  0.83436054  0.60851894
   0.58331435  0.58953601  0.60928327
   0.83222600  0.83512241  0.60875353
   0.83309147  0.58384004  0.60879070
   0.54104844  0.37869381  0.67567633
Direct configuration=     2
   0.08333000  0.33333000  0.39081000
   0.08333000  0.08333000  0.39081000
   0.33333000  0.33333000  0.39081000
   0.33333000  0.08333000  0.39081000
   0.41667000  0.16667000  0.46360000
   0.41667000  0.41667000  0.46360000
   0.16667000  0.16667000  0.46360000
   0.16667000  0.41667000  0.46360000
   0.24955177  0.00055301  0.53564274
   0.25079731  0.25018621  0.53538755
   0.50010427  0.00158462  0.53549233
   0.50081126  0.25265233  0.53850374
   0.08300426  0.33293012  0.60865938
   0.08167033  0.08435307  0.60890254
   0.32860472  0.33389338  0.60951651
   0.33297856  0.08370407  0.60879661
   0.08333000  0.83333000  0.39081000
   0.08333000  0.58333000  0.39081000
   0.33333000  0.83333000  0.39081000
   0.33333000  0.58333000  0.39081000
   0.41667000  0.66667000  0.46360000
   0.41667000  0.91667000  0.46360000
   0.16667000  0.66667000  0.46360000
   0.16667000  0.91667000  0.46360000
   0.24985069  0.50004523  0.53583805
   0.25017718  0.75008392  0.53524089
   0.50029826  0.49862909  0.53828206
   0.49982841  0.74964017  0.53536272
   0.08200379  0.83555519  0.60872299
   0.08110644  0.58469158  0.60900528
   0.33219710  0.83569169  0.60883669
   0.32662953  0.59006892  0.60901944
   0.58333000  0.33333000  0.39081000
   0.58333000  0.08333000  0.39081000
   0.83333000  0.33333000  0.39081000
   0.83333000  0.08333000  0.39081000
   0.91667000  0.16667000  0.46360000
   0.91667000  0.41667000  0.46360000
   0.66667000  0.16667000  0.46360000
   0.66667000  0.41667000  0.46360000
   0.74947308  0.00082745  0.53561723
   0.74472058  0.25326692  0.53893748
   0.99756106  0.00202270  0.53554431
   0.99800654  0.25035266  0.53549295
   0.57705027  0.34005536  0.62177974
   0.58330456  0.08214162  0.60950111
   0.83485130  0.33453466  0.60965019
   0.83343446  0.08269381  0.60963074
   0.58333000  0.83333000  0.39081000
   0.58333000  0.58333000  0.39081000
   0.83333000  0.83333000  0.39081000
   0.83333000  0.58333000  0.39081000
   0.91667000  0.66667000  0.46360000
   0.91667000  0.91667000  0.46360000
   0.66667000  0.66667000  0.46360000
   0.66667000  0.91667000  0.46360000
   0.74969470  0.50000282  0.53577283
   0.74982704  0.75023485  0.53567103
   0.00003291  0.49978396  0.53564181
  -0.00000005  0.75024651  0.53568804
   0.58227001  0.83462832  0.60864245
   0.58311801  0.58803479  0.60933950
   0.83239321  0.83468561  0.60877406
   0.83327616  0.58409664  0.60884857
   0.54405665  0.37542132  0.67158792
Direct configuration=     3
   0.08333000  0.33333000  0.39081000
   0.08333000  0.08333000  0.39081000
   0.33333000  0.33333000  0.39081000
   0.33333000  0.08333000  0.39081000
   0.41667000  0.16667000  0.46360000
   0.41667000  0.41667000  0.46360000
   0.16667000  0.16667000  0.46360000
   0.16667000  0.41667000  0.46360000
   0.24951221  0.00059495  0.53564318
   0.25070656  0.25018651  0.53537995
   0.50010883  0.00151467  0.53549107
   0.50084159  0.25268591  0.53846232
   0.08295495  0.33295677  0.60868197
   0.08173684  0.08434176  0.60890133
   0.32894507  0.33394955  0.60952388
   0.33293811  0.08369822  0.60880711
   0.08333000  0.83333000  0.39081000
   0.08333000  0.58333000  0.39081000
   0.33333000  0.83333000  0.39081000
   0.33333000  0.58333000  0.39081000
   0.41667000  0.66667000  0.46360000
   0.41667000  0.91667000  0.46360000
   0.16667000  0.66667000  0.46360000
   0.16667000  0.91667000  0.46360000
   0.24998771  0.50000610  0.53584934
   0.25015606  0.75009949  0.53527265
   0.50031788  0.49861333  0.53823519
   0.49979518  0.74965949  0.53535894
   0.08195568  0.83560966  0.60873901
   0.08102729  0.58472812  0.60900768
   0.33216578  0.83569352  0.60883283
   0.32709795  0.58960601  0.60905237
   0.58333000  0.33333000  0.39081000
   0.58333000  0.08333000  0.39081000
   0.83333000  0.33333000  0.39081000
   0.83333000  0.08333000  0.39081000
   0.91667000  0.16667000  0.46360000
   0.91667000  0.41667000  0.46360000
   0.66667000  0.16667000  0.46360000
   0.66667000  0.41667000  0.46360000
   0.74947168  0.00085338  0.53563143
   0.74462713  0.25329490  0.53889462
   0.99763568  0.00195208  0.53554558
   0.99810708  0.25035892  0.53549600
   0.57635487  0.34085330  0.62248356
   0.58325000  0.08242041  0.60950860
   0.83456955  0.33455697  0.60965721
   0.83322591  0.08290944  0.60963735
   0.58333000  0.83333000  0.39081000
   0.58333000  0.58333000  0.39081000
   0.83333000  0.83333000  0.39081000
   0.83333000  0.58333000  0.39081000
   0.91667000  0.66667000  0.46360000
   0.91667000  0.91667000  0.46360000
   0.66667000  0.66667000  0.46360000
   0.66667000  0.91667000  0.46360000
   0.74961163  0.49996207  0.53577576
   0.74988945  0.75025537  0.53565965
   0.00000972  0.49980661  0.53563376
  -0.00012117  0.75031464  0.53567968
   0.58225632  0.83469320  0.60867237
   0.58307043  0.58767104  0.60935312
   0.83243373  0.83457977  0.60877903
   0.83332091  0.58415881  0.60886259
   0.54478556  0.37462838  0.67059727
Direct configuration=     4
   0.08333000  0.33333000  0.39081000
   0.08333000  0.08333000  0.39081000
   0.33333000  0.33333000  0.39081000
   0.33333000  0.08333000  0.39081000
   0.41667000  0.16667000  0.46360000
   0.41667000  0.41667000  0.46360000
   0.16667000  0.16667000  0.46360000
   0.16667000  0.41667000  0.46360000
   0.24951634  0.00059057  0.53564314
   0.25071604  0.25018648  0.53538074
   0.50010835  0.00152198  0.53549120
   0.50083842  0.25268241  0.53846665
   0.08296010  0.33295399  0.60867961
   0.08172990  0.08434294  0.60890146
   0.32890953  0.33394369  0.60952311
   0.33294234  0.08369883  0.60880601
   0.08333000  0.83333000  0.39081000
   0.08333000  0.58333000  0.39081000
   0.33333000  0.83333000  0.39081000
   0.33333000  0.58333000  0.39081000
   0.41667000  0.66667000  0.46360000
   0.41667000  0.91667000  0.46360000
   0.16667000  0.66667000  0.46360000
   0.16667000  0.91667000  0.46360000
   0.24997340  0.50001019  0.53584816
   0.25015826  0.75009787  0.53526933
   0.50031583  0.49861498  0.53824009
   0.49979865  0.74965747  0.53535934
   0.08196070  0.83560397  0.60873733
   0.08103555  0.58472431  0.60900743
   0.33216905  0.83569333  0.60883323
   0.32704904  0.58965434  0.60904893
   0.58333000  0.33333000  0.39081000
   0.58333000  0.08333000  0.39081000
   0.83333000  0.33333000  0.39081000
   0.83333000  0.08333000  0.39081000
   0.91667000  0.16667000  0.46360000
   0.91667000  0.41667000  0.46360000
   0.66667000  0.16667000  0.46360000
   0.66667000  0.41667000  0.46360000
   0.74947183  0.00085067  0.53562995
   0.74463689  0.25329198  0.53889909
   0.99762789  0.00195945  0.53554545
   0.99809658  0.25035827  0.53549568
   0.57642748  0.34076998  0.62241007
   0.58325570  0.08239130  0.60950781
   0.83459897  0.33455464  0.60965648
   0.83324768  0.08288692  0.60963666
   0.58333000  0.83333000  0.39081000
   0.58333000  0.58333000  0.39081000
   0.83333000  0.83333000  0.39081000
   0.83333000  0.58333000  0.39081000
   0.91667000  0.66667000  0.46360000
   0.91667000  0.91667000  0.46360000
   0.66667000  0.66667000  0.46360000
   0.66667000  0.91667000  0.46360000
   0.74962030  0.49996633  0.53577545
   0.74988294  0.75025323  0.53566084
   0.00001214  0.49980424  0.53563460
  -0.00010852  0.75030753  0.53568055
   0.58225775  0.83468643  0.60866925
   0.58307540  0.58770903  0.60935170
   0.83242950  0.83459082  0.60877851
   0.83331623  0.58415232  0.60886112
   0.54470945  0.37471117  0.67070071
Direct configuration=     5
   0.08333000  0.33333000  0.39081000
   0.08333000  0.08333000  0.39081000
   0.33333000  0.33333000  0.39081000
   0.33333000  0.08333000  0.39081000
   0.41667000  0.16667000  0.46360000
   0.41667000  0.41667000  0.46360000
   0.16667000  0.16667000  0.46360000
   0.16667000  0.41667000  0.46360000
   0.24947986  0.00059410  0.53561989
   0.25066469  0.25029191  0.53543412
   0.50012552  0.00147332  0.53554265
   0.50101035  0.25277005  0.53837335
   0.08291924  0.33307033  0.60872496
   0.08163556  0.08449032  0.60889759
   0.33006659  0.33395945  0.60955902
   0.33288691  0.08386975  0.60881548
   0.08333000  0.83333000  0.39081000
   0.08333000  0.58333000  0.39081000
   0.33333000  0.83333000  0.39081000
   0.33333000  0.58333000  0.39081000
   0.41667000  0.66667000  0.46360000
   0.41667000  0.91667000  0.46360000
   0.16667000  0.66667000  0.46360000
   0.16667000  0.91667000  0.46360000
   0.25003213  0.50004574  0.53589025
   0.25011948  0.74998273  0.53534823
   0.50048099  0.49837608  0.53810198
   0.49987349  0.74959880  0.53543395
   0.08206507  0.83544445  0.60875881
   0.08102386  0.58478679  0.60897859
   0.33217091  0.83551129  0.60879747
   0.32839774  0.58840446  0.60919779
   0.58333000  0.33333000  0.39081000
   0.58333000  0.08333000  0.39081000
   0.83333000  0.33333000  0.39081000
   0.83333000  0.08333000  0.39081000
   0.91667000  0.16667000  0.46360000
   0.91667000  0.41667000  0.46360000
   0.66667000  0.16667000  0.46360000
   0.66667000  0.41667000  0.46360000
   0.74934934  0.00108803  0.53572928
   0.74445135  0.25331093  0.53880472
   0.99766919  0.00196397  0.53558157
   0.99808176  0.25045137  0.53554342
   0.57616819  0.34107651  0.62157839
   0.58300122  0.08354356  0.60953449
   0.83349433  0.33451220  0.60968672
   0.83231452  0.08396602  0.60965550
   0.58333000  0.83333000  0.39081000
   0.58333000  0.58333000  0.39081000
   0.83333000  0.83333000  0.39081000
   0.83333000  0.58333000  0.39081000
   0.91667000  0.66667000  0.46360000
   0.91667000  0.91667000  0.46360000
   0.66667000  0.66667000  0.46360000
   0.66667000  0.91667000  0.46360000
   0.74952512  0.50000450  0.53583990
   0.74978832  0.75021649  0.53567165
   0.00001750  0.49981612  0.53565223
  -0.00005950  0.75028208  0.53568523
   0.58222805  0.83468786  0.60871703
   0.58285360  0.58666561  0.60942391
   0.83240845  0.83453489  0.60881427
   0.83319669  0.58430522  0.60887169
   0.54569053  0.37365531  0.67002910
Direct configuration=     6
   0.08333000  0.33333000  0.39081000
   0.08333000  0.08333000  0.39081000
   0.33333000  0.33333000  0.39081000
   0.33333000  0.08333000  0.39081000
   0.41667000  0.16667000  0.46360000
   0.41667000  0.41667000  0.46360000
   0.16667000  0.16667000  0.46360000
   0.16667000  0.41667000  0.46360000
   0.24939437  0.00060238  0.53556542
   0.25054436  0.25053897  0.53555920
   0.50016574  0.00135931  0.53566322
   0.50141323  0.25297544  0.53815471
   0.08282349  0.33334295  0.60883122
   0.08141450  0.08483568  0.60888851
   0.33277794  0.33399640  0.60964316
   0.33275703  0.08427026  0.60883768
   0.08333000  0.83333000  0.39081000
   0.08333000  0.58333000  0.39081000
   0.33333000  0.83333000  0.39081000
   0.33333000  0.58333000  0.39081000
   0.41667000  0.66667000  0.46360000
   0.41667000  0.91667000  0.46360000
   0.16667000  0.66667000  0.46360000
   0.16667000  0.91667000  0.46360000
   0.25016974  0.50012903  0.53598888
   0.25002861  0.74971293  0.53553312
   0.50086801  0.49781627  0.53777835
   0.50004888  0.74946133  0.53560881
   0.08230964  0.83507063  0.60880913
   0.08099646  0.58493321  0.60891101
   0.33217528  0.83508471  0.60871367
   0.33155818  0.58547557  0.60954661
   0.58333000  0.33333000  0.39081000
   0.58333000  0.08333000  0.39081000
   0.83333000  0.33333000  0.39081000
   0.83333000  0.08333000  0.39081000
   0.91667000  0.16667000  0.46360000
   0.91667000  0.41667000  0.46360000
   0.66667000  0.16667000  0.46360000
   0.66667000  0.41667000  0.46360000
   0.74906232  0.00164425  0.53596203
   0.74401659  0.25335536  0.53858357
   0.99776598  0.00197457  0.53566620
   0.99804705  0.25066953  0.53565529
   0.57556060  0.34179480  0.61962949
   0.58240490  0.08624367  0.60959702
   0.83090580  0.33441274  0.60975758
   0.83012782  0.08649470  0.60969966
   0.58333000  0.83333000  0.39081000
   0.58333000  0.58333000  0.39081000
   0.83333000  0.83333000  0.39081000
   0.83333000  0.58333000  0.39081000
   0.91667000  0.66667000  0.46360000
   0.91667000  0.91667000  0.46360000
   0.66667000  0.66667000  0.46360000
   0.66667000  0.91667000  0.46360000
   0.74930209  0.50009396  0.53599093
   0.74956659  0.75013039  0.53569697
   0.00003006  0.49984396  0.53569354
   0.00005539  0.75022245  0.53569619
   0.58215845  0.83469122  0.60882900
   0.58233386  0.58422054  0.60959312
   0.83235913  0.83440382  0.60889807
   0.83291657  0.58466351  0.60889644
   0.54798953  0.37118108  0.66845528
Direct configuration=     7
   0.08333000  0.33333000  0.39081000
   0.08333000  0.08333000  0.39081000
   0.33333000  0.33333000  0.39081000
   0.33333000  0.08333000  0.39081000
   0.41667000  0.16667000  0.46360000
   0.41667000  0.41667000  0.46360000
   0.16667000  0.16667000  0.46360000
   0.16667000  0.41667000  0.46360000
   0.24949055  0.00055118  0.53560021
   0.25078561  0.25066664  0.53570346
   0.50015981  0.00154323  0.53579606
   0.50086453  0.25264022  0.53769436
   0.08270458  0.33367810  0.60880223
   0.08107946  0.08506301  0.60884017
   0.33258469  0.33416557  0.60965650
   0.33273877  0.08453551  0.60879544
   0.08333000  0.83333000  0.39081000
   0.08333000  0.58333000  0.39081000
   0.33333000  0.83333000  0.39081000
   0.33333000  0.58333000  0.39081000
   0.41667000  0.66667000  0.46360000
   0.41667000  0.91667000  0.46360000
   0.16667000  0.66667000  0.46360000
   0.16667000  0.91667000  0.46360000
   0.25000574  0.50021289  0.53606194
   0.25035143  0.74935343  0.53570687
   0.50045947  0.49859415  0.53730739
   0.49997969  0.74932339  0.53575637
   0.08244710  0.83478085  0.60875833
   0.08154979  0.58470609  0.60885907
   0.33218087  0.83490257  0.60867010
   0.33132822  0.58569472  0.60965172
   0.58333000  0.33333000  0.39081000
   0.58333000  0.08333000  0.39081000
   0.83333000  0.33333000  0.39081000
   0.83333000  0.08333000  0.39081000
   0.91667000  0.16667000  0.46360000
   0.91667000  0.41667000  0.46360000
   0.66667000  0.16667000  0.46360000
   0.66667000  0.41667000  0.46360000
   0.74927195  0.00113826  0.53606430
   0.74497246  0.25303001  0.53813157
   0.99759377  0.00200007  0.53580052
   0.99766180  0.25089284  0.53578914
   0.57649417  0.34076489  0.61868932
   0.58222614  0.08650169  0.60965916
   0.83066801  0.33452648  0.60978120
   0.82993080  0.08677803  0.60975140
   0.58333000  0.83333000  0.39081000
   0.58333000  0.58333000  0.39081000
   0.83333000  0.83333000  0.39081000
   0.83333000  0.58333000  0.39081000
   0.91667000  0.66667000  0.46360000
   0.91667000  0.91667000  0.46360000
   0.66667000  0.66667000  0.46360000
   0.66667000  0.91667000  0.46360000
   0.74946894  0.50013461  0.53607131
   0.74968155  0.75037937  0.53574177
  -0.00008671  0.49993781  0.53574416
  -0.00032652  0.75049233  0.53574093
   0.58212978  0.83459906  0.60880879
   0.58215357  0.58447486  0.60965160
   0.83200952  0.83506263  0.60884244
   0.83249303  0.58447543  0.60887542
   0.54984724  0.36920686  0.66729237
Direct configuration=     8
   0.08333000  0.33333000  0.39081000
   0.08333000  0.08333000  0.39081000
   0.33333000  0.33333000  0.39081000
   0.33333000  0.08333000  0.39081000
   0.41667000  0.16667000  0.46360000
   0.41667000  0.41667000  0.46360000
   0.16667000  0.16667000  0.46360000
   0.16667000  0.41667000  0.46360000
   0.24957225  0.00050768  0.53562975
   0.25099055  0.25077510  0.53582601
   0.50015478  0.00169947  0.53590891
   0.50039840  0.25235545  0.53730327
   0.08260356  0.33396282  0.60877760
   0.08079485  0.08525613  0.60879910
   0.33242052  0.33430927  0.60966783
   0.33272326  0.08476084  0.60875955
   0.08333000  0.83333000  0.39081000
   0.08333000  0.58333000  0.39081000
   0.33333000  0.83333000  0.39081000
   0.33333000  0.58333000  0.39081000
   0.41667000  0.66667000  0.46360000
   0.41667000  0.91667000  0.46360000
   0.16667000  0.66667000  0.46360000
   0.16667000  0.91667000  0.46360000
   0.24986642  0.50028414  0.53612400
   0.25062567  0.74904804  0.53585447
   0.50011242  0.49925498  0.53690731
   0.49992092  0.74920621  0.53588172
   0.08256388  0.83453467  0.60871517
   0.08201985  0.58451315  0.60881495
   0.33218562  0.83474785  0.60863309
   0.33113286  0.58588089  0.60974102
   0.58333000  0.33333000  0.39081000
   0.58333000  0.08333000  0.39081000
   0.83333000  0.33333000  0.39081000
   0.83333000  0.08333000  0.39081000
   0.91667000  0.16667000  0.46360000
   0.91667000  0.41667000  0.46360000
   0.66667000  0.16667000  0.46360000
   0.66667000  0.41667000  0.46360000
   0.74945003  0.00070842  0.53615117
   0.74578449  0.25275362  0.53774758
   0.99744748  0.00202173  0.53591463
   0.99733452  0.25108253  0.53590285
   0.57728726  0.33988997  0.61789064
   0.58207429  0.08672089  0.60971194
   0.83046601  0.33462311  0.60980127
   0.82976343  0.08701873  0.60979535
   0.58333000  0.83333000  0.39081000
   0.58333000  0.58333000  0.39081000
   0.83333000  0.83333000  0.39081000
   0.83333000  0.58333000  0.39081000
   0.91667000  0.66667000  0.46360000
   0.91667000  0.91667000  0.46360000
   0.66667000  0.66667000  0.46360000
   0.66667000  0.91667000  0.46360000
   0.74961068  0.50016915  0.53613959
   0.74977920  0.75059089  0.53577983
  -0.00018592  0.50001753  0.53578716
  -0.00065096  0.75072160  0.53577894
   0.58210542  0.83452077  0.60879163
   0.58200041  0.58469091  0.60970127
   0.83171252  0.83562228  0.60879519
   0.83213322  0.58431565  0.60885757
   0.55142539  0.36752974  0.66630446
Direct configuration=     9
   0.08333000  0.33333000  0.39081000
   0.08333000  0.08333000  0.39081000
   0.33333000  0.33333000  0.39081000
   0.33333000  0.08333000  0.39081000
   0.41667000  0.16667000  0.46360000
   0.41667000  0.41667000  0.46360000
   0.16667000  0.16667000  0.46360000
   0.16667000  0.41667000  0.46360000
   0.24960657  0.00048941  0.53564217
   0.25107663  0.25082065  0.53587749
   0.50015266  0.00176510  0.53595631
   0.50020260  0.25223583  0.53713900
   0.08256113  0.33408241  0.60876726
   0.08067529  0.08533725  0.60878185
   0.33235156  0.33436964  0.60967259
   0.33271674  0.08485549  0.60874448
   0.08333000  0.83333000  0.39081000
   0.08333000  0.58333000  0.39081000
   0.33333000  0.83333000  0.39081000
   0.33333000  0.58333000  0.39081000
   0.41667000  0.66667000  0.46360000
   0.41667000  0.91667000  0.46360000
   0.16667000  0.66667000  0.46360000
   0.16667000  0.91667000  0.46360000
   0.24980790  0.50031406  0.53615007
   0.25074087  0.74891976  0.53591647
   0.49996663  0.49953257  0.53673925
   0.49989623  0.74915699  0.53593438
   0.08261293  0.83443126  0.60869704
   0.08221730  0.58443210  0.60879642
   0.33218761  0.83468285  0.60861754
   0.33105080  0.58595910  0.60977853
   0.58333000  0.33333000  0.39081000
   0.58333000  0.08333000  0.39081000
   0.83333000  0.33333000  0.39081000
   0.83333000  0.08333000  0.39081000
   0.91667000  0.16667000  0.46360000
   0.91667000  0.41667000  0.46360000
   0.66667000  0.16667000  0.46360000
   0.66667000  0.41667000  0.46360000
   0.74952484  0.00052786  0.53618767
   0.74612559  0.25263752  0.53758628
   0.99738603  0.00203083  0.53596256
   0.99719704  0.25116222  0.53595061
   0.57762040  0.33952245  0.61755515
   0.58201050  0.08681296  0.60973412
   0.83038116  0.33466370  0.60980970
   0.82969312  0.08711983  0.60981381
   0.58333000  0.83333000  0.39081000
   0.58333000  0.58333000  0.39081000
   0.83333000  0.83333000  0.39081000
   0.83333000  0.58333000  0.39081000
   0.91667000  0.66667000  0.46360000
   0.91667000  0.91667000  0.46360000
   0.66667000  0.66667000  0.46360000
   0.66667000  0.91667000  0.46360000
   0.74967022  0.50018365  0.53616828
   0.74982022  0.75067973  0.53579581
  -0.00022759  0.50005102  0.53580522
  -0.00078724  0.75081791  0.53579491
   0.58209519  0.83448788  0.60878442
   0.58193608  0.58478166  0.60972214
   0.83158776  0.83585737  0.60877534
   0.83198208  0.58424854  0.60885006
   0.55208830  0.36682525  0.66588949
Direct configuration=    10
   0.08333000  0.33333000  0.39081000
   0.08333000  0.08333000  0.39081000
   0.33333000  0.33333000  0.39081000
   0.33333000  0.08333000  0.39081000
   0.41667000  0.16667000  0.46360000
   0.41667000  0.41667000  0.46360000
   0.16667000  0.16667000  0.46360000
   0.16667000  0.41667000  0.46360000
   0.24948610  0.00063218  0.53565224
   0.25059588  0.25092721  0.53587526
   0.50019335  0.00148040  0.53599094
   0.50044065  0.25209625  0.53679510
   0.08229073  0.33447346  0.60875485
   0.08061516  0.08541779  0.60876516
   0.33184562  0.33456305  0.60965516
   0.33255577  0.08493781  0.60877050
   0.08333000  0.83333000  0.39081000
   0.08333000  0.58333000  0.39081000
   0.33333000  0.83333000  0.39081000
   0.33333000  0.58333000  0.39081000
   0.41667000  0.66667000  0.46360000
   0.41667000  0.91667000  0.46360000
   0.16667000  0.66667000  0.46360000
   0.16667000  0.91667000  0.46360000
   0.24966975  0.50052716  0.53611197
   0.25027295  0.74921219  0.53587779
   0.49997890  0.49948367  0.53648005
   0.50017554  0.74939811  0.53591127
   0.08242629  0.83440572  0.60871087
   0.08234937  0.58440860  0.60881416
   0.33202365  0.83491179  0.60872588
   0.33074912  0.58629910  0.60978136
   0.58333000  0.33333000  0.39081000
   0.58333000  0.08333000  0.39081000
   0.83333000  0.33333000  0.39081000
   0.83333000  0.08333000  0.39081000
   0.91667000  0.16667000  0.46360000
   0.91667000  0.41667000  0.46360000
   0.66667000  0.16667000  0.46360000
   0.66667000  0.41667000  0.46360000
   0.74932285  0.00081983  0.53613490
   0.74599563  0.25255867  0.53720535
   0.99766646  0.00166963  0.53600563
   0.99755379  0.25118964  0.53597140
   0.57894695  0.33811034  0.61596635
   0.58178496  0.08665528  0.60972122
   0.83065040  0.33478628  0.60981788
   0.82999715  0.08694400  0.60980565
   0.58333000  0.83333000  0.39081000
   0.58333000  0.58333000  0.39081000
   0.83333000  0.83333000  0.39081000
   0.83333000  0.58333000  0.39081000
   0.91667000  0.66667000  0.46360000
   0.91667000  0.91667000  0.46360000
   0.66667000  0.66667000  0.46360000
   0.66667000  0.91667000  0.46360000
   0.74944732  0.50049636  0.53612601
   0.74960595  0.75060033  0.53580448
  -0.00022272  0.50011558  0.53577847
  -0.00059593  0.75074979  0.53578053
   0.58212420  0.83451508  0.60878875
   0.58167409  0.58529919  0.60967928
   0.83133622  0.83627932  0.60883610
   0.83173813  0.58419684  0.60887721
   0.55416522  0.36460645  0.66513187
Direct configuration=    11
   0.08333000  0.33333000  0.39081000
   0.08333000  0.08333000  0.39081000
   0.33333000  0.33333000  0.39081000
   0.33333000  0.08333000  0.39081000
   0.41667000  0.16667000  0.46360000
   0.41667000  0.41667000  0.46360000
   0.16667000  0.16667000  0.46360000
   0.16667000  0.41667000  0.46360000
   0.24946354  0.00065892  0.53565412
   0.25050583  0.25094717  0.53587485
   0.50020097  0.00142708  0.53599742
   0.50048524  0.25207010  0.53673069
   0.08224009  0.33454670  0.60875253
   0.08060390  0.08543287  0.60876204
   0.33175086  0.33459927  0.60965189
   0.33252562  0.08495322  0.60877537
   0.08333000  0.83333000  0.39081000
   0.08333000  0.58333000  0.39081000
   0.33333000  0.83333000  0.39081000
   0.33333000  0.58333000  0.39081000
   0.41667000  0.66667000  0.46360000
   0.41667000  0.91667000  0.46360000
   0.16667000  0.66667000  0.46360000
   0.16667000  0.91667000  0.46360000
   0.24964388  0.50056707  0.53610483
   0.25018531  0.74926697  0.53587055
   0.49998120  0.49947452  0.53643151
   0.50022785  0.74944327  0.53590694
   0.08239134  0.83440094  0.60871346
   0.08237411  0.58440420  0.60881749
   0.33199295  0.83495468  0.60874618
   0.33069261  0.58636279  0.60978188
   0.58333000  0.33333000  0.39081000
   0.58333000  0.08333000  0.39081000
   0.83333000  0.33333000  0.39081000
   0.83333000  0.08333000  0.39081000
   0.91667000  0.16667000  0.46360000
   0.91667000  0.41667000  0.46360000
   0.66667000  0.16667000  0.46360000
   0.66667000  0.41667000  0.46360000
   0.74928502  0.00087452  0.53612502
   0.74597129  0.25254391  0.53713400
   0.99771899  0.00160198  0.53601370
   0.99762061  0.25119478  0.53597530
   0.57919541  0.33784586  0.61566877
   0.58174272  0.08662574  0.60971881
   0.83070083  0.33480924  0.60981941
   0.83005409  0.08691106  0.60980413
   0.58333000  0.83333000  0.39081000
   0.58333000  0.58333000  0.39081000
   0.83333000  0.83333000  0.39081000
   0.83333000  0.58333000  0.39081000
   0.91667000  0.66667000  0.46360000
   0.91667000  0.91667000  0.46360000
   0.66667000  0.66667000  0.46360000
   0.66667000  0.91667000  0.46360000
   0.74940557  0.50055493  0.53611809
   0.74956582  0.75058545  0.53580610
  -0.00022181  0.50012767  0.53577346
  -0.00056010  0.75073703  0.53577784
   0.58212963  0.83452018  0.60878956
   0.58162502  0.58539612  0.60967126
   0.83128910  0.83635835  0.60884748
   0.83169244  0.58418715  0.60888230
   0.55455423  0.36419087  0.66498997
Direct configuration=    12
   0.08333000  0.33333000  0.39081000
   0.08333000  0.08333000  0.39081000
   0.33333000  0.33333000  0.39081000
   0.33333000  0.08333000  0.39081000
   0.41667000  0.16667000  0.46360000
   0.41667000  0.41667000  0.46360000
   0.16667000  0.16667000  0.46360000
   0.16667000  0.41667000  0.46360000
   0.24932833  0.00073324  0.53565626
   0.24999506  0.25093377  0.53576654
   0.50012191  0.00111987  0.53593248
   0.50065626  0.25195598  0.53664096
   0.08186277  0.33494853  0.60879960
   0.08084218  0.08535093  0.60879502
   0.33125986  0.33469490  0.60951974
   0.33224480  0.08491861  0.60884779
   0.08333000  0.83333000  0.39081000
   0.08333000  0.58333000  0.39081000
   0.33333000  0.83333000  0.39081000
   0.33333000  0.58333000  0.39081000
   0.41667000  0.66667000  0.46360000
   0.41667000  0.91667000  0.46360000
   0.16667000  0.66667000  0.46360000
   0.16667000  0.91667000  0.46360000
   0.24972932  0.50060366  0.53601966
   0.24973148  0.74992645  0.53572444
   0.49997618  0.49943331  0.53646375
   0.50018712  0.74993456  0.53577318
   0.08194548  0.83460914  0.60881210
   0.08206865  0.58461045  0.60888290
   0.33174586  0.83539600  0.60888953
   0.33060296  0.58662216  0.60963713
   0.58333000  0.33333000  0.39081000
   0.58333000  0.08333000  0.39081000
   0.83333000  0.33333000  0.39081000
   0.83333000  0.08333000  0.39081000
   0.91667000  0.16667000  0.46360000
   0.91667000  0.41667000  0.46360000
   0.66667000  0.16667000  0.46360000
   0.66667000  0.41667000  0.46360000
   0.74906642  0.00129997  0.53600984
   0.74578846  0.25251797  0.53694458
   0.99807599  0.00130312  0.53594954
   0.99811617  0.25109108  0.53589248
   0.57983996  0.33718350  0.61475556
   0.58142936  0.08619488  0.60958994
   0.83127064  0.33485370  0.60971632
   0.83071513  0.08641839  0.60969262
   0.58333000  0.83333000  0.39081000
   0.58333000  0.58333000  0.39081000
   0.83333000  0.83333000  0.39081000
   0.83333000  0.58333000  0.39081000
   0.91667000  0.66667000  0.46360000
   0.91667000  0.91667000  0.46360000
   0.66667000  0.66667000  0.46360000
   0.66667000  0.91667000  0.46360000
   0.74915791  0.50066986  0.53602345
   0.74957191  0.75036333  0.53580399
  -0.00027436  0.50030114  0.53571367
  -0.00037644  0.75050108  0.53574254