
     Program PWSCF v.7.1 starts on 17Jun2023 at 10:55:11 

     This program is part of the open-source Quantum ESPRESSO suite
     for quantum simulation of materials; please cite
         "P. Giannozzi et al., J. Phys.:Condens. Matter 21 395502 (2009);
         "P. Giannozzi et al., J. Phys.:Condens. Matter 29 465901 (2017);
         "P. Giannozzi et al., J. Chem. Phys. 152 154105 (2020);
          URL http://www.quantum-espresso.org", 
     in publications or presentations arising from this work. More details at
     http://www.quantum-espresso.org/quote

     Parallel version (MPI), running on    24 processors

     MPI processes distributed on     1 nodes
     223816 MiB available memory on the printing compute node when the environment starts
 
     Waiting for input...
     Reading input from standard input

     Current dimensions of program PWSCF are:
     Max number of different atomic species (ntypx) = 10
     Max number of k-points (npk) =  40000
     Max angular momentum in pseudopotentials (lmaxx) =  4

     File ./output/pwscf.update deleted, as requested

     File ./output/pwscf.bfgs deleted, as requested
     file Al.pbe-n-kjpaw_psl.1.0.0.UPF: wavefunction(s)  3S 3P renormalized
     Found identity + ( -0.5000  0.0000  0.0000) symmetry
     This is a supercell, fractional translations are disabled
     Message from routine setup:
     using ibrav=0 with symmetry is DISCOURAGED, use correct ibrav instead
 
     R & G space division:  proc/nbgrp/npool/nimage =      24
     Subspace diagonalization in iterative solution of the eigenvalue problem:
     a serial algorithm will be used

 
     Parallelization info
     --------------------
     sticks:   dense  smooth     PW     G-vecs:    dense   smooth      PW
     Min          81      53     15                 7361     3997     585
     Max          82      54     16                 7370     4010     593
     Sum        1945    1285    361               176729    96075   14159
 
     Using Slab Decomposition
 


     bravais-lattice index     =            0
     lattice parameter (alat)  =      10.8235  a.u.
     unit-cell volume          =    2813.7848 (a.u.)^3
     number of atoms/cell      =           12
     number of atomic types    =            1
     number of electrons       =        36.00
     number of Kohn-Sham states=           22
     kinetic-energy cutoff     =      40.0000  Ry
     charge density cutoff     =     240.0000  Ry
     scf convergence threshold =      1.0E-07
     mixing beta               =       0.7000
     number of iterations used =            8  plain     mixing
     energy convergence thresh.=      1.0E-04
     force convergence thresh. =      7.0E-04
     Exchange-correlation= SLA  PW   PBX  PBC
                           (   1   4   3   4   0   0   0)
     nstep                     =           50


     celldm(1)=  10.823529  celldm(2)=   0.000000  celldm(3)=   0.000000
     celldm(4)=   0.000000  celldm(5)=   0.000000  celldm(6)=   0.000000

     crystal axes: (cart. coord. in units of alat)
               a(1) = (   1.000000   0.000000   0.000000 )  
               a(2) = (   0.500000   0.866025   0.000000 )  
               a(3) = (   0.000000   0.000000   2.562439 )  

     reciprocal axes: (cart. coord. in units 2 pi/alat)
               b(1) = (  1.000000 -0.577350  0.000000 )  
               b(2) = (  0.000000  1.154701  0.000000 )  
               b(3) = (  0.000000  0.000000  0.390253 )  


     PseudoPot. # 1 for Al read from file:
     /home/yyj/SSSP_1.3.0_PBE_efficiency/Al.pbe-n-kjpaw_psl.1.0.0.UPF
     MD5 check sum: cfc449ca30b5f3223ec38ddd88ac046d
     Pseudo is Projector augmented-wave + core cor, Zval =  3.0
     Generated using "atomic" code by A. Dal Corso  v.5.1
     Shape of augmentation charge: PSQ
     Using radial grid of 1135 points,  6 beta functions with: 
                l(1) =   0
                l(2) =   0
                l(3) =   1
                l(4) =   1
                l(5) =   2
                l(6) =   2
     Q(r) pseudized with 0 coefficients 


     atomic species   valence    mass     pseudopotential
        Al             3.00    26.98154     Al( 1.00)

      6 Sym. Ops. (no inversion) found



   Cartesian axes

     site n.     atom                  positions (alat units)
         1           Al  tau(   1) = (   0.2500000   0.1443376   0.0000000  )
         2           Al  tau(   2) = (   0.7500001   0.1443376   0.0000000  )
         3           Al  tau(   3) = (   0.4999999   0.5773502   0.0000000  )
         4           Al  tau(   4) = (   1.0000000   0.5773502   0.0000000  )
         5           Al  tau(   5) = (   0.0000000   0.2886752   0.4082484  )
         6           Al  tau(   6) = (   0.4999999   0.2886752   0.4082484  )
         7           Al  tau(   7) = (   0.2500000   0.7216878   0.4082484  )
         8           Al  tau(   8) = (   0.7500001   0.7216878   0.4082484  )
         9           Al  tau(   9) = (   0.0000000   0.0000000   0.8164965  )
        10           Al  tau(  10) = (   0.4999999   0.0000000   0.8164965  )
        11           Al  tau(  11) = (   0.2500000   0.4330126   0.8164965  )
        12           Al  tau(  12) = (   0.7500001   0.4330126   0.8164965  )

     number of k points=     2  Gaussian smearing, width (Ry)=  0.0030
                       cart. coord. in units 2pi/alat
        k(    1) = (   0.0000000   0.0000000   0.0000000), wk =   0.5000000
        k(    2) = (   0.0000000  -0.5773503   0.0000000), wk =   1.5000000

     Dense  grid:   176729 G-vectors     FFT dimensions: (  54,  54, 144)

     Smooth grid:    96075 G-vectors     FFT dimensions: (  45,  45, 120)

     Estimated max dynamical RAM per process >      32.46 MB

     Estimated total dynamical RAM >     779.06 MB

     Initial potential from superposition of free atoms

     starting charge      35.9725, renormalised to      36.0000
     Starting wfcs are   48 randomized atomic wfcs
     Checking if some PAW data can be deallocated... 

     total cpu time spent up to now is        0.5 secs

     Self-consistent Calculation

     iteration #  1     ecut=    40.00 Ry     beta= 0.70
     Davidson diagonalization with overlap
     ethr =  1.00E-02,  avg # of iterations =  4.0

     total cpu time spent up to now is        0.7 secs

     total energy              =    -473.04507785 Ry
     estimated scf accuracy    <       0.97763810 Ry

     iteration #  2     ecut=    40.00 Ry     beta= 0.70
     Davidson diagonalization with overlap
     ethr =  2.72E-03,  avg # of iterations =  4.5

     total cpu time spent up to now is        1.0 secs

     total energy              =    -472.20215256 Ry
     estimated scf accuracy    <      13.36072672 Ry

     iteration #  3     ecut=    40.00 Ry     beta= 0.70
     Davidson diagonalization with overlap
     ethr =  2.72E-03,  avg # of iterations =  5.5

     total cpu time spent up to now is        1.3 secs

     total energy              =    -473.65803573 Ry
     estimated scf accuracy    <       0.07009505 Ry

     iteration #  4     ecut=    40.00 Ry     beta= 0.70
     Davidson diagonalization with overlap
     ethr =  1.95E-04,  avg # of iterations =  9.5

     negative rho (up, down):  2.721E-08 0.000E+00

     total cpu time spent up to now is        1.5 secs

     total energy              =    -473.62823812 Ry
     estimated scf accuracy    <       1.85403165 Ry

     iteration #  5     ecut=    40.00 Ry     beta= 0.70
     Davidson diagonalization with overlap
     ethr =  1.95E-04,  avg # of iterations =  4.0

     negative rho (up, down):  5.564E-08 0.000E+00

     total cpu time spent up to now is        1.8 secs

     total energy              =    -473.69799588 Ry
     estimated scf accuracy    <       0.06690158 Ry

     iteration #  6     ecut=    40.00 Ry     beta= 0.70
     Davidson diagonalization with overlap
     ethr =  1.86E-04,  avg # of iterations =  2.0

     negative rho (up, down):  6.060E-08 0.000E+00

     total cpu time spent up to now is        2.0 secs

     total energy              =    -473.70138339 Ry
     estimated scf accuracy    <       0.00972892 Ry

     iteration #  7     ecut=    40.00 Ry     beta= 0.70
     Davidson diagonalization with overlap
     ethr =  2.70E-05,  avg # of iterations =  5.0

     negative rho (up, down):  2.626E-07 0.000E+00

     total cpu time spent up to now is        2.3 secs

     total energy              =    -473.70209842 Ry
     estimated scf accuracy    <       0.00341989 Ry

     iteration #  8     ecut=    40.00 Ry     beta= 0.70
     Davidson diagonalization with overlap
     ethr =  9.50E-06,  avg # of iterations =  4.0

     negative rho (up, down):  4.040E-07 0.000E+00

     total cpu time spent up to now is        2.5 secs

     total energy              =    -473.70279192 Ry
     estimated scf accuracy    <       0.00108703 Ry

     iteration #  9     ecut=    40.00 Ry     beta= 0.70
     Davidson diagonalization with overlap
     ethr =  3.02E-06,  avg # of iterations =  9.5

     negative rho (up, down):  4.542E-07 0.000E+00

     total cpu time spent up to now is        2.8 secs

     total energy              =    -473.70286097 Ry
     estimated scf accuracy    <       0.00060409 Ry

     iteration # 10     ecut=    40.00 Ry     beta= 0.70
     Davidson diagonalization with overlap
     ethr =  1.68E-06,  avg # of iterations =  2.0

     negative rho (up, down):  4.111E-07 0.000E+00

     total cpu time spent up to now is        3.0 secs

     total energy              =    -473.70290538 Ry
     estimated scf accuracy    <       0.00006024 Ry

     iteration # 11     ecut=    40.00 Ry     beta= 0.70
     Davidson diagonalization with overlap
     ethr =  1.67E-07,  avg # of iterations =  4.5

     negative rho (up, down):  4.084E-07 0.000E+00

     total cpu time spent up to now is        3.3 secs

     total energy              =    -473.70292224 Ry
     estimated scf accuracy    <       0.00000876 Ry

     iteration # 12     ecut=    40.00 Ry     beta= 0.70
     Davidson diagonalization with overlap
     ethr =  2.43E-08,  avg # of iterations =  6.5

     negative rho (up, down):  4.144E-07 0.000E+00

     total cpu time spent up to now is        3.5 secs

     total energy              =    -473.70292475 Ry
     estimated scf accuracy    <       0.00000044 Ry

     iteration # 13     ecut=    40.00 Ry     beta= 0.70
     Davidson diagonalization with overlap
     ethr =  1.23E-09,  avg # of iterations =  7.5

     negative rho (up, down):  4.193E-07 0.000E+00

     total cpu time spent up to now is        3.8 secs

     total energy              =    -473.70292500 Ry
     estimated scf accuracy    <       0.00000053 Ry

     iteration # 14     ecut=    40.00 Ry     beta= 0.70
     Davidson diagonalization with overlap
     ethr =  1.23E-09,  avg # of iterations =  2.0

     negative rho (up, down):  4.203E-07 0.000E+00

     total cpu time spent up to now is        4.0 secs

     total energy              =    -473.70292499 Ry
     estimated scf accuracy    <       0.00000023 Ry

     iteration # 15     ecut=    40.00 Ry     beta= 0.70
     Davidson diagonalization with overlap
     ethr =  6.50E-10,  avg # of iterations =  2.0

     negative rho (up, down):  4.217E-07 0.000E+00

     total cpu time spent up to now is        4.3 secs

     End of self-consistent calculation

          k = 0.0000 0.0000 0.0000 ( 11947 PWs)   bands (ev):

    -8.6128  -7.1158  -4.3739  -2.7712  -2.7712  -2.7712  -2.7095  -2.7095
    -2.7094  -1.5556  -1.5555  -1.5555  -1.2958  -1.0069  -1.0069  -1.0069
     1.3652   1.3652   1.3652   1.6132   1.6132   1.6132

          k = 0.0000-0.5774 0.0000 ( 12036 PWs)   bands (ev):

    -7.1200  -7.1200  -5.6342  -5.6342  -4.1816  -4.1816  -2.9017  -2.9017
    -2.7282  -2.7282  -0.1082  -0.1082   0.1134   0.1134   1.4756   1.4757
     1.6222   1.6222   2.6635   2.6635   3.0661   3.0665

     the Fermi energy is     1.6233 ev

!    total energy              =    -473.70292500 Ry
     total all-electron energy =     -5827.416304 Ry
     estimated scf accuracy    <          9.0E-09 Ry
     smearing contrib. (-TS)   =      -0.00373081 Ry
     internal energy E=F+TS    =    -473.69919419 Ry

     The total energy is F=E-TS. E is the sum of the following terms:
     one-electron contribution =    -170.01457329 Ry
     hartree contribution      =      96.07110639 Ry
     xc contribution           =     -30.41526641 Ry
     ewald contribution        =      46.80299174 Ry
     one-center paw contrib.   =    -416.14345263 Ry

     convergence has been achieved in  15 iterations

     negative rho (up, down):  4.217E-07 0.000E+00

     Forces acting on atoms (cartesian axes, Ry/au):

     atom    1 type  1   force =    -0.00000047   -0.00000027   -0.00142820
     atom    2 type  1   force =     0.00000047   -0.00000027   -0.00142820
     atom    3 type  1   force =     0.00000000    0.00000054   -0.00142820
     atom    4 type  1   force =     0.00000000    0.00000000   -0.00142958
     atom    5 type  1   force =    -0.00000000   -0.00000352   -0.00000102
     atom    6 type  1   force =     0.00000000    0.00000000   -0.00000236
     atom    7 type  1   force =     0.00000305    0.00000176   -0.00000102
     atom    8 type  1   force =    -0.00000305    0.00000176   -0.00000102
     atom    9 type  1   force =     0.00000000    0.00000000    0.00142562
     atom   10 type  1   force =     0.00000000    0.00000049    0.00143133
     atom   11 type  1   force =     0.00000042   -0.00000024    0.00143133
     atom   12 type  1   force =    -0.00000042   -0.00000024    0.00143133

     Total force =     0.002860     Total SCF correction =     0.000078

     BFGS Geometry Optimization
     Energy error            =      0.0E+00 Ry
     Gradient error          =      1.4E-03 Ry/Bohr

     number of scf cycles    =   1
     number of bfgs steps    =   0

     energy             new  =    -473.7029250042 Ry

     new trust radius        =       0.0014313315 bohr
     new conv_thr            =       0.0000001000 Ry


ATOMIC_POSITIONS (angstrom)
Al            1.4318910000        0.8267030000        0.0000000000    0   0   0
Al            4.2956740000        0.8267030000        0.0000000000    0   0   0
Al            2.8637820000        3.3068110000        0.0000000000    0   0   0
Al            5.7275650000        3.3068110000        0.0000000000    0   0   0
Al            0.0000000000        1.6534041355        2.3382684593
Al            2.8637820000        1.6534060000        2.3382677537
Al            1.4318926147        4.1335149322        2.3382684593
Al            4.2956723853        4.1335149322        2.3382684593
Al            0.0000000000        0.0000000000        4.6772914052
Al            2.8637820000        0.0000002574        4.6772944280
Al            1.4318912229        2.4801078713        4.6772944280
Al            4.2956737771        2.4801078713        4.6772944280



     Writing config-only to output data dir ./output/pwscf.save/
     NEW-OLD atomic charge density approx. for the potential

     negative rho (up, down):  3.953E-07 0.000E+00

     total cpu time spent up to now is        4.8 secs

     Self-consistent Calculation

     iteration #  1     ecut=    40.00 Ry     beta= 0.70
     Davidson diagonalization with overlap
     ethr =  1.00E-06,  avg # of iterations =  2.0

     Threshold (ethr) on eigenvalues was too large:
     Diagonalizing with lowered threshold

     Davidson diagonalization with overlap
     ethr =  2.93E-08,  avg # of iterations =  1.0

     negative rho (up, down):  4.137E-07 0.000E+00

     total cpu time spent up to now is        5.2 secs

     total energy              =    -473.70292542 Ry
     estimated scf accuracy    <       0.00001180 Ry

     iteration #  2     ecut=    40.00 Ry     beta= 0.70
     Davidson diagonalization with overlap
     ethr =  3.28E-08,  avg # of iterations =  6.5

     negative rho (up, down):  4.157E-07 0.000E+00

     total cpu time spent up to now is        5.4 secs

     total energy              =    -473.70287487 Ry
     estimated scf accuracy    <       0.00096204 Ry

     iteration #  3     ecut=    40.00 Ry     beta= 0.70
     Davidson diagonalization with overlap
     ethr =  3.28E-08,  avg # of iterations =  7.0

     negative rho (up, down):  4.168E-07 0.000E+00

     total cpu time spent up to now is        5.7 secs

     total energy              =    -473.70292551 Ry
     estimated scf accuracy    <       0.00013653 Ry

     iteration #  4     ecut=    40.00 Ry     beta= 0.70
     Davidson diagonalization with overlap
     ethr =  3.28E-08,  avg # of iterations =  3.0

     negative rho (up, down):  4.201E-07 0.000E+00

     total cpu time spent up to now is        6.0 secs

     total energy              =    -473.70293317 Ry
     estimated scf accuracy    <       0.00000231 Ry

     iteration #  5     ecut=    40.00 Ry     beta= 0.70
     Davidson diagonalization with overlap
     ethr =  6.42E-09,  avg # of iterations =  3.5

     negative rho (up, down):  4.215E-07 0.000E+00

     total cpu time spent up to now is        6.2 secs

     total energy              =    -473.70293345 Ry
     estimated scf accuracy    <       0.00000021 Ry

     iteration #  6     ecut=    40.00 Ry     beta= 0.70
     Davidson diagonalization with overlap
     ethr =  5.72E-10,  avg # of iterations =  4.0

     negative rho (up, down):  4.232E-07 0.000E+00

     total cpu time spent up to now is        6.5 secs

     End of self-consistent calculation

          k = 0.0000 0.0000 0.0000 ( 11947 PWs)   bands (ev):

    -8.6124  -7.1158  -4.3743  -2.7709  -2.7709  -2.7708  -2.7090  -2.7089
    -2.7089  -1.5555  -1.5555  -1.5555  -1.2962  -1.0069  -1.0069  -1.0069
     1.3649   1.3649   1.3649   1.6127   1.6127   1.6128

          k = 0.0000-0.5774 0.0000 ( 12036 PWs)   bands (ev):

    -7.1196  -7.1196  -5.6342  -5.6342  -4.1812  -4.1812  -2.9021  -2.9021
    -2.7282  -2.7282  -0.1085  -0.1085   0.1131   0.1131   1.4761   1.4761
     1.6226   1.6226   2.6636   2.6636   3.0657   3.0657

     the Fermi energy is     1.6234 ev

!    total energy              =    -473.70293340 Ry
     total all-electron energy =     -5827.416312 Ry
     estimated scf accuracy    <       0.00000010 Ry
     smearing contrib. (-TS)   =      -0.00372386 Ry
     internal energy E=F+TS    =    -473.69920954 Ry

     The total energy is F=E-TS. E is the sum of the following terms:
     one-electron contribution =    -169.95892993 Ry
     hartree contribution      =      96.04113887 Ry
     xc contribution           =     -30.41461240 Ry
     ewald contribution        =      46.77656628 Ry
     one-center paw contrib.   =    -416.14337236 Ry

     convergence has been achieved in   6 iterations

     negative rho (up, down):  4.232E-07 0.000E+00

     Forces acting on atoms (cartesian axes, Ry/au):

     atom    1 type  1   force =    -0.00000339   -0.00000195   -0.00161892
     atom    2 type  1   force =     0.00000339   -0.00000195   -0.00161892
     atom    3 type  1   force =     0.00000000    0.00000391   -0.00161892
     atom    4 type  1   force =     0.00000000    0.00000000   -0.00162035
     atom    5 type  1   force =     0.00000000   -0.00000098    0.00007548
     atom    6 type  1   force =    -0.00000000    0.00000000    0.00007476
     atom    7 type  1   force =     0.00000085    0.00000049    0.00007548
     atom    8 type  1   force =    -0.00000085    0.00000049    0.00007548
     atom    9 type  1   force =     0.00000000   -0.00000000    0.00154431
     atom   10 type  1   force =     0.00000000   -0.00000325    0.00154386
     atom   11 type  1   force =    -0.00000281    0.00000162    0.00154386
     atom   12 type  1   force =     0.00000281    0.00000162    0.00154386

     Total force =     0.003092     Total SCF correction =     0.000428
     SCF correction compared to forces is large: reduce conv_thr to get better values
     Energy error            =      8.4E-06 Ry
     Gradient error          =      1.5E-03 Ry/Bohr

     number of scf cycles    =   2
     number of bfgs steps    =   1

     energy             old  =    -473.7029250042 Ry
     energy             new  =    -473.7029334012 Ry

     CASE: energy            _new < energy            _old


     WARNING: bfgs curvature condition failed, Theta= 0.741
     uphill step: resetting bfgs history

     new trust radius        =       0.0015443146 bohr
     new conv_thr            =       0.0000000010 Ry


ATOMIC_POSITIONS (angstrom)
Al            1.4318910000        0.8267030000        0.0000000000    0   0   0
Al            4.2956740000        0.8267030000        0.0000000000    0   0   0
Al            2.8637820000        3.3068110000        0.0000000000    0   0   0
Al            5.7275650000        3.3068110000        0.0000000000    0   0   0
Al            0.0000000000        1.6534036166        2.3383084024
Al            2.8637820000        1.6534060000        2.3383073145
Al            1.4318930641        4.1335151917        2.3383084024
Al            4.2956719359        4.1335151917        2.3383084024
Al           -0.0000000000       -0.0000000000        4.6781086213
Al            2.8637820000       -0.0000014616        4.6781114045
Al            1.4318897343        2.4801087308        4.6781114045
Al            4.2956752657        2.4801087308        4.6781114045



     Writing config-only to output data dir ./output/pwscf.save/
     NEW-OLD atomic charge density approx. for the potential

     negative rho (up, down):  3.947E-07 0.000E+00

     total cpu time spent up to now is        7.0 secs

     Self-consistent Calculation

     iteration #  1     ecut=    40.00 Ry     beta= 0.70
     Davidson diagonalization with overlap
     ethr =  1.00E-06,  avg # of iterations =  2.0

     Threshold (ethr) on eigenvalues was too large:
     Diagonalizing with lowered threshold

     Davidson diagonalization with overlap
     ethr =  5.37E-08,  avg # of iterations =  1.0

     negative rho (up, down):  4.155E-07 0.000E+00

     total cpu time spent up to now is        7.3 secs

     total energy              =    -473.70292637 Ry
     estimated scf accuracy    <       0.00002142 Ry

     iteration #  2     ecut=    40.00 Ry     beta= 0.70
     Davidson diagonalization with overlap
     ethr =  5.95E-08,  avg # of iterations =  7.5

     negative rho (up, down):  4.161E-07 0.000E+00

     total cpu time spent up to now is        7.6 secs

     total energy              =    -473.70276575 Ry
     estimated scf accuracy    <       0.00403529 Ry

     iteration #  3     ecut=    40.00 Ry     beta= 0.70
     Davidson diagonalization with overlap
     ethr =  5.95E-08,  avg # of iterations =  7.5

     negative rho (up, down):  4.180E-07 0.000E+00

     total cpu time spent up to now is        7.9 secs

     total energy              =    -473.70294217 Ry
     estimated scf accuracy    <       0.00000659 Ry

     iteration #  4     ecut=    40.00 Ry     beta= 0.70
     Davidson diagonalization with overlap
     ethr =  1.83E-08,  avg # of iterations =  2.0

     negative rho (up, down):  4.216E-07 0.000E+00

     total cpu time spent up to now is        8.1 secs

     total energy              =    -473.70294311 Ry
     estimated scf accuracy    <       0.00000303 Ry

     iteration #  5     ecut=    40.00 Ry     beta= 0.70
     Davidson diagonalization with overlap
     ethr =  8.41E-09,  avg # of iterations =  1.0

     negative rho (up, down):  4.231E-07 0.000E+00

     total cpu time spent up to now is        8.4 secs

     total energy              =    -473.70294323 Ry
     estimated scf accuracy    <       0.00000070 Ry

     iteration #  6     ecut=    40.00 Ry     beta= 0.70
     Davidson diagonalization with overlap
     ethr =  1.93E-09,  avg # of iterations =  2.0

     negative rho (up, down):  4.239E-07 0.000E+00

     total cpu time spent up to now is        8.6 secs

     total energy              =    -473.70294326 Ry
     estimated scf accuracy    <       0.00000022 Ry

     iteration #  7     ecut=    40.00 Ry     beta= 0.70
     Davidson diagonalization with overlap
     ethr =  6.06E-10,  avg # of iterations =  3.5

     negative rho (up, down):  4.249E-07 0.000E+00

     total cpu time spent up to now is        8.8 secs

     total energy              =    -473.70294329 Ry
     estimated scf accuracy    <       0.00000001 Ry

     iteration #  8     ecut=    40.00 Ry     beta= 0.70
     Davidson diagonalization with overlap
     ethr =  2.86E-11,  avg # of iterations =  6.0

     negative rho (up, down):  4.252E-07 0.000E+00

     total cpu time spent up to now is        9.1 secs

     total energy              =    -473.70294330 Ry
     estimated scf accuracy    <          1.6E-09 Ry

     iteration #  9     ecut=    40.00 Ry     beta= 0.70
     Davidson diagonalization with overlap
     ethr =  4.43E-12,  avg # of iterations =  5.5

     negative rho (up, down):  4.254E-07 0.000E+00

     total cpu time spent up to now is        9.3 secs

     End of self-consistent calculation

          k = 0.0000 0.0000 0.0000 ( 11947 PWs)   bands (ev):

    -8.6123  -7.1160  -4.3750  -2.7708  -2.7708  -2.7708  -2.7088  -2.7088
    -2.7088  -1.5557  -1.5557  -1.5557  -1.2967  -1.0072  -1.0072  -1.0072
     1.3644   1.3644   1.3644   1.6120   1.6120   1.6120

          k = 0.0000-0.5774 0.0000 ( 12036 PWs)   bands (ev):

    -7.1195  -7.1195  -5.6345  -5.6345  -4.1811  -4.1811  -2.9028  -2.9027
    -2.7284  -2.7284  -0.1090  -0.1090   0.1125   0.1125   1.4763   1.4763
     1.6226   1.6226   2.6635   2.6635   3.0653   3.0653

     the Fermi energy is     1.6232 ev

!    total energy              =    -473.70294331 Ry
     total all-electron energy =     -5827.416322 Ry
     estimated scf accuracy    <          6.9E-10 Ry
     smearing contrib. (-TS)   =      -0.00371666 Ry
     internal energy E=F+TS    =    -473.69922665 Ry

     The total energy is F=E-TS. E is the sum of the following terms:
     one-electron contribution =    -169.90479113 Ry
     hartree contribution      =      96.01485353 Ry
     xc contribution           =     -30.41403481 Ry
     ewald contribution        =      46.74803794 Ry
     one-center paw contrib.   =    -416.14329218 Ry

     convergence has been achieved in   9 iterations

     negative rho (up, down):  4.254E-07 0.000E+00

     Forces acting on atoms (cartesian axes, Ry/au):

     atom    1 type  1   force =    -0.00000007   -0.00000004   -0.00175825
     atom    2 type  1   force =     0.00000007   -0.00000004   -0.00175825
     atom    3 type  1   force =     0.00000000    0.00000008   -0.00175825
     atom    4 type  1   force =     0.00000000    0.00000000   -0.00175809
     atom    5 type  1   force =    -0.00000000    0.00000065    0.00011929
     atom    6 type  1   force =    -0.00000000    0.00000000    0.00011990
     atom    7 type  1   force =    -0.00000056   -0.00000032    0.00011929
     atom    8 type  1   force =     0.00000056   -0.00000032    0.00011929
     atom    9 type  1   force =     0.00000000    0.00000000    0.00163908
     atom   10 type  1   force =     0.00000000    0.00000077    0.00163865
     atom   11 type  1   force =     0.00000067   -0.00000039    0.00163865
     atom   12 type  1   force =    -0.00000067   -0.00000039    0.00163865

     Total force =     0.003286     Total SCF correction =     0.000033
     Energy error            =      9.9E-06 Ry
     Gradient error          =      1.6E-03 Ry/Bohr

     number of scf cycles    =   3
     number of bfgs steps    =   2

     energy             old  =    -473.7029334012 Ry
     energy             new  =    -473.7029433051 Ry

     CASE: energy            _new < energy            _old


     WARNING: bfgs curvature condition failed, Theta= 0.753
     new trust radius        =       0.0016987461 bohr
     new conv_thr            =       0.0000000010 Ry


ATOMIC_POSITIONS (angstrom)
Al            1.4318910000        0.8267030000        0.0000000000    0   0   0
Al            4.2956740000        0.8267030000        0.0000000000    0   0   0
Al            2.8637820000        3.3068110000        0.0000000000    0   0   0
Al            5.7275650000        3.3068110000        0.0000000000    0   0   0
Al            0.0000000000        1.6533967185        2.3382053475
Al            2.8637820000        1.6534060000        2.3381986825
Al            1.4318990380        4.1335186408        2.3382053475
Al            4.2956659620        4.1335186408        2.3382053475
Al           -0.0000000000       -0.0000000000        4.6790075590
Al            2.8637820000       -0.0000191914        4.6790098877
Al            1.4318743797        2.4801175957        4.6790098877
Al            4.2956906203        2.4801175957        4.6790098877



     Writing config-only to output data dir ./output/pwscf.save/
     NEW-OLD atomic charge density approx. for the potential

     negative rho (up, down):  3.939E-07 0.000E+00

     total cpu time spent up to now is        9.9 secs

     Self-consistent Calculation

     iteration #  1     ecut=    40.00 Ry     beta= 0.70
     Davidson diagonalization with overlap
     ethr =  1.00E-06,  avg # of iterations =  2.0

     Threshold (ethr) on eigenvalues was too large:
     Diagonalizing with lowered threshold

     Davidson diagonalization with overlap
     ethr =  3.00E-08,  avg # of iterations =  1.0

     negative rho (up, down):  4.157E-07 0.000E+00

     total cpu time spent up to now is       10.2 secs

     total energy              =    -473.70294687 Ry
     estimated scf accuracy    <       0.00001189 Ry

     iteration #  2     ecut=    40.00 Ry     beta= 0.70
     Davidson diagonalization with overlap
     ethr =  3.30E-08,  avg # of iterations =  6.0

     negative rho (up, down):  4.178E-07 0.000E+00

     total cpu time spent up to now is       10.5 secs

     total energy              =    -473.70289999 Ry
     estimated scf accuracy    <       0.00086070 Ry

     iteration #  3     ecut=    40.00 Ry     beta= 0.70
     Davidson diagonalization with overlap
     ethr =  3.30E-08,  avg # of iterations =  6.5

     negative rho (up, down):  4.191E-07 0.000E+00

     total cpu time spent up to now is       10.8 secs

     total energy              =    -473.70294685 Ry
     estimated scf accuracy    <       0.00012577 Ry

     iteration #  4     ecut=    40.00 Ry     beta= 0.70
     Davidson diagonalization with overlap
     ethr =  3.30E-08,  avg # of iterations =  4.0

     negative rho (up, down):  4.232E-07 0.000E+00

     total cpu time spent up to now is       11.0 secs

     total energy              =    -473.70295437 Ry
     estimated scf accuracy    <       0.00000239 Ry

     iteration #  5     ecut=    40.00 Ry     beta= 0.70
     Davidson diagonalization with overlap
     ethr =  6.64E-09,  avg # of iterations =  3.5

     negative rho (up, down):  4.250E-07 0.000E+00

     total cpu time spent up to now is       11.2 secs

     total energy              =    -473.70295461 Ry
     estimated scf accuracy    <       0.00000029 Ry

     iteration #  6     ecut=    40.00 Ry     beta= 0.70
     Davidson diagonalization with overlap
     ethr =  7.99E-10,  avg # of iterations =  5.0

     negative rho (up, down):  4.258E-07 0.000E+00

     total cpu time spent up to now is       11.5 secs

     total energy              =    -473.70295466 Ry
     estimated scf accuracy    <       0.00000004 Ry

     iteration #  7     ecut=    40.00 Ry     beta= 0.70
     Davidson diagonalization with overlap
     ethr =  9.99E-11,  avg # of iterations =  5.0

     negative rho (up, down):  4.262E-07 0.000E+00

     total cpu time spent up to now is       11.7 secs

     total energy              =    -473.70295467 Ry
     estimated scf accuracy    <       0.00000001 Ry

     iteration #  8     ecut=    40.00 Ry     beta= 0.70
     Davidson diagonalization with overlap
     ethr =  3.85E-11,  avg # of iterations =  2.0

     negative rho (up, down):  4.269E-07 0.000E+00

     total cpu time spent up to now is       12.0 secs

     total energy              =    -473.70295467 Ry
     estimated scf accuracy    <          7.1E-09 Ry

     iteration #  9     ecut=    40.00 Ry     beta= 0.70
     Davidson diagonalization with overlap
     ethr =  1.98E-11,  avg # of iterations =  1.5

     negative rho (up, down):  4.271E-07 0.000E+00

     total cpu time spent up to now is       12.2 secs

     End of self-consistent calculation

          k = 0.0000 0.0000 0.0000 ( 11947 PWs)   bands (ev):

    -8.6120  -7.1162  -4.3755  -2.7705  -2.7705  -2.7705  -2.7084  -2.7084
    -2.7084  -1.5557  -1.5557  -1.5557  -1.2972  -1.0074  -1.0074  -1.0074
     1.3639   1.3639   1.3639   1.6114   1.6114   1.6114

          k = 0.0000-0.5774 0.0000 ( 12036 PWs)   bands (ev):

    -7.1192  -7.1192  -5.6346  -5.6346  -4.1808  -4.1808  -2.9033  -2.9033
    -2.7285  -2.7285  -0.1094  -0.1094   0.1121   0.1121   1.4767   1.4767
     1.6228   1.6228   2.6635   2.6635   3.0649   3.0649

     the Fermi energy is     1.6231 ev

!    total energy              =    -473.70295467 Ry
     total all-electron energy =     -5827.416334 Ry
     estimated scf accuracy    <          2.1E-10 Ry
     smearing contrib. (-TS)   =      -0.00370752 Ry
     internal energy E=F+TS    =    -473.69924715 Ry

     The total energy is F=E-TS. E is the sum of the following terms:
     one-electron contribution =    -169.84243834 Ry
     hartree contribution      =      95.98305259 Ry
     xc contribution           =     -30.41333404 Ry
     ewald contribution        =      46.71666950 Ry
     one-center paw contrib.   =    -416.14319685 Ry

     convergence has been achieved in   9 iterations

     negative rho (up, down):  4.271E-07 0.000E+00

     Forces acting on atoms (cartesian axes, Ry/au):

     atom    1 type  1   force =    -0.00000310   -0.00000179   -0.00195355
     atom    2 type  1   force =     0.00000310   -0.00000179   -0.00195355
     atom    3 type  1   force =     0.00000000    0.00000358   -0.00195355
     atom    4 type  1   force =     0.00000000    0.00000000   -0.00195293
     atom    5 type  1   force =    -0.00000000    0.00000318    0.00020546
     atom    6 type  1   force =     0.00000000    0.00000000    0.00021030
     atom    7 type  1   force =    -0.00000275   -0.00000159    0.00020546
     atom    8 type  1   force =     0.00000275   -0.00000159    0.00020546
     atom    9 type  1   force =     0.00000000   -0.00000000    0.00174835
     atom   10 type  1   force =     0.00000000    0.00000422    0.00174618
     atom   11 type  1   force =     0.00000366   -0.00000211    0.00174618
     atom   12 type  1   force =    -0.00000366   -0.00000211    0.00174618

     Total force =     0.003518     Total SCF correction =     0.000015
     Energy error            =      1.1E-05 Ry
     Gradient error          =      1.7E-03 Ry/Bohr

     number of scf cycles    =   4
     number of bfgs steps    =   3

     energy             old  =    -473.7029433051 Ry
     energy             new  =    -473.7029546707 Ry

     CASE: energy            _new < energy            _old


     WARNING: bfgs curvature condition failed, Theta= 0.727
     uphill step: resetting bfgs history

     new trust radius        =       0.0017483478 bohr
     new conv_thr            =       0.0000000010 Ry


ATOMIC_POSITIONS (angstrom)
Al            1.4318910000        0.8267030000        0.0000000000    0   0   0
Al            4.2956740000        0.8267030000        0.0000000000    0   0   0
Al            2.8637820000        3.3068110000        0.0000000000    0   0   0
Al            5.7275650000        3.3068110000        0.0000000000    0   0   0
Al            0.0000000000        1.6533983993        2.3383140733
Al            2.8637820000        1.6534060000        2.3383099687
Al            1.4318975824        4.1335178003        2.3383140733
Al            4.2956674176        4.1335178003        2.3383140733
Al           -0.0000000000       -0.0000000000        4.6799327448
Al            2.8637820000       -0.0000169560        4.6799339278
Al            1.4318763156        2.4801164780        4.6799339278
Al            4.2956886844        2.4801164780        4.6799339278



     Writing config-only to output data dir ./output/pwscf.save/
     NEW-OLD atomic charge density approx. for the potential

     negative rho (up, down):  3.945E-07 0.000E+00

     total cpu time spent up to now is       12.7 secs

     Self-consistent Calculation

     iteration #  1     ecut=    40.00 Ry     beta= 0.70
     Davidson diagonalization with overlap
     ethr =  1.00E-06,  avg # of iterations =  2.0

     Threshold (ethr) on eigenvalues was too large:
     Diagonalizing with lowered threshold

     Davidson diagonalization with overlap
     ethr =  2.41E-08,  avg # of iterations =  1.0

     negative rho (up, down):  4.175E-07 0.000E+00

     total cpu time spent up to now is       13.1 secs

     total energy              =    -473.70296167 Ry
     estimated scf accuracy    <       0.00000956 Ry

     iteration #  2     ecut=    40.00 Ry     beta= 0.70
     Davidson diagonalization with overlap
     ethr =  2.66E-08,  avg # of iterations =  4.0

     negative rho (up, down):  4.199E-07 0.000E+00

     total cpu time spent up to now is       13.3 secs

     total energy              =    -473.70293588 Ry
     estimated scf accuracy    <       0.00038945 Ry

     iteration #  3     ecut=    40.00 Ry     beta= 0.70
     Davidson diagonalization with overlap
     ethr =  2.66E-08,  avg # of iterations =  5.5

     negative rho (up, down):  4.206E-07 0.000E+00

     total cpu time spent up to now is       13.6 secs

     total energy              =    -473.70296105 Ry
     estimated scf accuracy    <       0.00011670 Ry

     iteration #  4     ecut=    40.00 Ry     beta= 0.70
     Davidson diagonalization with overlap
     ethr =  2.66E-08,  avg # of iterations =  4.5

     negative rho (up, down):  4.244E-07 0.000E+00

     total cpu time spent up to now is       13.8 secs

     total energy              =    -473.70296727 Ry
     estimated scf accuracy    <       0.00000224 Ry

     iteration #  5     ecut=    40.00 Ry     beta= 0.70
     Davidson diagonalization with overlap
     ethr =  6.22E-09,  avg # of iterations =  2.0

     negative rho (up, down):  4.270E-07 0.000E+00

     total cpu time spent up to now is       14.1 secs

     total energy              =    -473.70296743 Ry
     estimated scf accuracy    <       0.00000028 Ry

     iteration #  6     ecut=    40.00 Ry     beta= 0.70
     Davidson diagonalization with overlap
     ethr =  7.79E-10,  avg # of iterations =  3.5

     negative rho (up, down):  4.279E-07 0.000E+00

     total cpu time spent up to now is       14.3 secs

     total energy              =    -473.70296750 Ry
     estimated scf accuracy    <       0.00000002 Ry

     iteration #  7     ecut=    40.00 Ry     beta= 0.70
     Davidson diagonalization with overlap
     ethr =  4.85E-11,  avg # of iterations =  5.5

     negative rho (up, down):  4.284E-07 0.000E+00

     total cpu time spent up to now is       14.6 secs

     total energy              =    -473.70296750 Ry
     estimated scf accuracy    <       0.00000002 Ry

     iteration #  8     ecut=    40.00 Ry     beta= 0.70
     Davidson diagonalization with overlap
     ethr =  4.85E-11,  avg # of iterations =  1.0

     negative rho (up, down):  4.291E-07 0.000E+00

     total cpu time spent up to now is       14.8 secs

     total energy              =    -473.70296750 Ry
     estimated scf accuracy    <          9.9E-09 Ry

     iteration #  9     ecut=    40.00 Ry     beta= 0.70
     Davidson diagonalization with overlap
     ethr =  2.75E-11,  avg # of iterations =  3.5

     negative rho (up, down):  4.291E-07 0.000E+00

     total cpu time spent up to now is       15.1 secs

     total energy              =    -473.70296750 Ry
     estimated scf accuracy    <          3.2E-09 Ry

     iteration # 10     ecut=    40.00 Ry     beta= 0.70
     Davidson diagonalization with overlap
     ethr =  8.92E-12,  avg # of iterations =  2.0

     negative rho (up, down):  4.292E-07 0.000E+00

     total cpu time spent up to now is       15.3 secs

     End of self-consistent calculation

          k = 0.0000 0.0000 0.0000 ( 11947 PWs)   bands (ev):

    -8.6117  -7.1163  -4.3761  -2.7702  -2.7702  -2.7702  -2.7080  -2.7080
    -2.7080  -1.5557  -1.5557  -1.5557  -1.2977  -1.0076  -1.0076  -1.0076
     1.3635   1.3635   1.3635   1.6107   1.6108   1.6108

          k = 0.0000-0.5774 0.0000 ( 12036 PWs)   bands (ev):

    -7.1188  -7.1188  -5.6347  -5.6347  -4.1804  -4.1804  -2.9039  -2.9039
    -2.7286  -2.7286  -0.1099  -0.1099   0.1116   0.1116   1.4771   1.4771
     1.6231   1.6231   2.6636   2.6636   3.0645   3.0645

     the Fermi energy is     1.6231 ev

!    total energy              =    -473.70296750 Ry
     total all-electron energy =     -5827.416346 Ry
     estimated scf accuracy    <          6.3E-10 Ry
     smearing contrib. (-TS)   =      -0.00369743 Ry
     internal energy E=F+TS    =    -473.69927008 Ry

     The total energy is F=E-TS. E is the sum of the following terms:
     one-electron contribution =    -169.77837374 Ry
     hartree contribution      =      95.95041705 Ry
     xc contribution           =     -30.41261972 Ry
     ewald contribution        =      46.68440791 Ry
     one-center paw contrib.   =    -416.14310159 Ry

     convergence has been achieved in  10 iterations

     negative rho (up, down):  4.292E-07 0.000E+00

     Forces acting on atoms (cartesian axes, Ry/au):

     atom    1 type  1   force =    -0.00000237   -0.00000137   -0.00213468
     atom    2 type  1   force =     0.00000237   -0.00000137   -0.00213468
     atom    3 type  1   force =    -0.00000000    0.00000273   -0.00213468
     atom    4 type  1   force =     0.00000000    0.00000000   -0.00213495
     atom    5 type  1   force =     0.00000000    0.00000242    0.00026055
     atom    6 type  1   force =     0.00000000    0.00000000    0.00026428
     atom    7 type  1   force =    -0.00000210   -0.00000121    0.00026055
     atom    8 type  1   force =     0.00000210   -0.00000121    0.00026055
     atom    9 type  1   force =     0.00000000   -0.00000000    0.00187470
     atom   10 type  1   force =     0.00000000    0.00000360    0.00187278
     atom   11 type  1   force =     0.00000312   -0.00000180    0.00187278
     atom   12 type  1   force =    -0.00000312   -0.00000180    0.00187278

     Total force =     0.003783     Total SCF correction =     0.000025
     Energy error            =      1.3E-05 Ry
     Gradient error          =      1.9E-03 Ry/Bohr

     number of scf cycles    =   5
     number of bfgs steps    =   4

     energy             old  =    -473.7029546707 Ry
     energy             new  =    -473.7029675034 Ry

     CASE: energy            _new < energy            _old


     WARNING: bfgs curvature condition failed, Theta= 0.744
     new trust radius        =       0.0003503303 bohr
     new conv_thr            =       0.0000000010 Ry


ATOMIC_POSITIONS (angstrom)
Al            1.4318910000        0.8267030000        0.0000000000    0   0   0
Al            4.2956740000        0.8267030000        0.0000000000    0   0   0
Al            2.8637820000        3.3068110000        0.0000000000    0   0   0
Al            5.7275650000        3.3068110000        0.0000000000    0   0   0
Al            0.0000000000        1.6534037452        2.3381287636
Al            2.8637820000        1.6534060000        2.3381326002
Al            1.4318929527        4.1335151274        2.3381287636
Al            4.2956720473        4.1335151274        2.3381287636
Al           -0.0000000000       -0.0000000000        4.6801048980
Al            2.8637820000       -0.0000118121        4.6801037933
Al            1.4318807705        2.4801139060        4.6801037933
Al            4.2956842295        2.4801139060        4.6801037933



     Writing config-only to output data dir ./output/pwscf.save/
     NEW-OLD atomic charge density approx. for the potential

     negative rho (up, down):  4.223E-07 0.000E+00

     total cpu time spent up to now is       15.8 secs

     Self-consistent Calculation

     iteration #  1     ecut=    40.00 Ry     beta= 0.70
     Davidson diagonalization with overlap
     ethr =  1.00E-06,  avg # of iterations =  1.0

     Threshold (ethr) on eigenvalues was too large:
     Diagonalizing with lowered threshold

     Davidson diagonalization with overlap
     ethr =  8.46E-10,  avg # of iterations =  4.5

     negative rho (up, down):  4.271E-07 0.000E+00

     total cpu time spent up to now is       16.2 secs

     total energy              =    -473.70296882 Ry
     estimated scf accuracy    <       0.00000096 Ry

     iteration #  2     ecut=    40.00 Ry     beta= 0.70
     Davidson diagonalization with overlap
     ethr =  2.65E-09,  avg # of iterations =  7.5

     negative rho (up, down):  4.274E-07 0.000E+00

     total cpu time spent up to now is       16.5 secs

     total energy              =    -473.70296289 Ry
     estimated scf accuracy    <       0.00014275 Ry

     iteration #  3     ecut=    40.00 Ry     beta= 0.70
     Davidson diagonalization with overlap
     ethr =  2.65E-09,  avg # of iterations =  7.0

     negative rho (up, down):  4.278E-07 0.000E+00

     total cpu time spent up to now is       16.7 secs

     total energy              =    -473.70296928 Ry
     estimated scf accuracy    <       0.00000220 Ry

     iteration #  4     ecut=    40.00 Ry     beta= 0.70
     Davidson diagonalization with overlap
     ethr =  2.65E-09,  avg # of iterations =  2.0

     negative rho (up, down):  4.284E-07 0.000E+00

     total cpu time spent up to now is       17.0 secs

     total energy              =    -473.70296951 Ry
     estimated scf accuracy    <       0.00000018 Ry

     iteration #  5     ecut=    40.00 Ry     beta= 0.70
     Davidson diagonalization with overlap
     ethr =  5.09E-10,  avg # of iterations =  1.0

     negative rho (up, down):  4.288E-07 0.000E+00

     total cpu time spent up to now is       17.2 secs

     total energy              =    -473.70296952 Ry
     estimated scf accuracy    <       0.00000002 Ry

     iteration #  6     ecut=    40.00 Ry     beta= 0.70
     Davidson diagonalization with overlap
     ethr =  5.76E-11,  avg # of iterations =  4.5

     negative rho (up, down):  4.293E-07 0.000E+00

     total cpu time spent up to now is       17.5 secs

     End of self-consistent calculation

          k = 0.0000 0.0000 0.0000 ( 11947 PWs)   bands (ev):

    -8.6116  -7.1163  -4.3762  -2.7701  -2.7701  -2.7701  -2.7079  -2.7079
    -2.7079  -1.5557  -1.5557  -1.5557  -1.2977  -1.0076  -1.0076  -1.0076
     1.3634   1.3634   1.3634   1.6107   1.6107   1.6107

          k = 0.0000-0.5774 0.0000 ( 12036 PWs)   bands (ev):

    -7.1187  -7.1187  -5.6347  -5.6347  -4.1803  -4.1803  -2.9040  -2.9040
    -2.7286  -2.7286  -0.1100  -0.1100   0.1115   0.1116   1.4771   1.4772
     1.6231   1.6231   2.6636   2.6636   3.0645   3.0645

     the Fermi energy is     1.6231 ev

!    total energy              =    -473.70296953 Ry
     total all-electron energy =     -5827.416349 Ry
     estimated scf accuracy    <          7.9E-10 Ry
     smearing contrib. (-TS)   =      -0.00369541 Ry
     internal energy E=F+TS    =    -473.69927412 Ry

     The total energy is F=E-TS. E is the sum of the following terms:
     one-electron contribution =    -169.76653185 Ry
     hartree contribution      =      95.94436024 Ry
     xc contribution           =     -30.41248347 Ry
     ewald contribution        =      46.67846280 Ry
     one-center paw contrib.   =    -416.14308184 Ry

     convergence has been achieved in   6 iterations

     negative rho (up, down):  4.293E-07 0.000E+00

     Forces acting on atoms (cartesian axes, Ry/au):

     atom    1 type  1   force =    -0.00000232   -0.00000134   -0.00218689
     atom    2 type  1   force =     0.00000232   -0.00000134   -0.00218689
     atom    3 type  1   force =     0.00000000    0.00000268   -0.00218689
     atom    4 type  1   force =     0.00000000    0.00000000   -0.00218735
     atom    5 type  1   force =     0.00000000    0.00000063    0.00030447
     atom    6 type  1   force =     0.00000000    0.00000000    0.00030539
     atom    7 type  1   force =    -0.00000055   -0.00000032    0.00030447
     atom    8 type  1   force =     0.00000055   -0.00000032    0.00030447
     atom    9 type  1   force =     0.00000000    0.00000000    0.00188263
     atom   10 type  1   force =     0.00000000    0.00000080    0.00188220
     atom   11 type  1   force =     0.00000070   -0.00000040    0.00188220
     atom   12 type  1   force =    -0.00000070   -0.00000040    0.00188220

     Total force =     0.003814     Total SCF correction =     0.000021
     Energy error            =      2.0E-06 Ry
     Gradient error          =      1.9E-03 Ry/Bohr

     number of scf cycles    =   6
     number of bfgs steps    =   5

     energy             old  =    -473.7029675034 Ry
     energy             new  =    -473.7029695296 Ry

     CASE: energy            _new < energy            _old


     WARNING: bfgs curvature condition failed, Theta= 0.819
     new trust radius        =       0.0003853633 bohr
     new conv_thr            =       0.0000000010 Ry


ATOMIC_POSITIONS (angstrom)
Al            1.4318910000        0.8267030000        0.0000000000    0   0   0
Al            4.2956740000        0.8267030000        0.0000000000    0   0   0
Al            2.8637820000        3.3068110000        0.0000000000    0   0   0
Al            5.7275650000        3.3068110000        0.0000000000    0   0   0
Al            0.0000000000        1.6534094893        2.3379249190
Al            2.8637820000        1.6534060000        2.3379372557
Al            1.4318879782        4.1335122554        2.3379249190
Al            4.2956770218        4.1335122554        2.3379249190
Al           -0.0000000000       -0.0000000000        4.6802990953
Al            2.8637820000       -0.0000065167        4.6802956860
Al            1.4318853564        2.4801112583        4.6802956860
Al            4.2956796436        2.4801112583        4.6802956860



     Writing config-only to output data dir ./output/pwscf.save/
     NEW-OLD atomic charge density approx. for the potential

     negative rho (up, down):  4.216E-07 0.000E+00

     total cpu time spent up to now is       18.0 secs

     Self-consistent Calculation

     iteration #  1     ecut=    40.00 Ry     beta= 0.70
     Davidson diagonalization with overlap
     ethr =  1.00E-06,  avg # of iterations =  2.0

     Threshold (ethr) on eigenvalues was too large:
     Diagonalizing with lowered threshold

     Davidson diagonalization with overlap
     ethr =  2.06E-09,  avg # of iterations =  4.0

     negative rho (up, down):  4.269E-07 0.000E+00

     total cpu time spent up to now is       18.4 secs

     total energy              =    -473.70297025 Ry
     estimated scf accuracy    <       0.00000193 Ry

     iteration #  2     ecut=    40.00 Ry     beta= 0.70
     Davidson diagonalization with overlap
     ethr =  5.35E-09,  avg # of iterations =  7.5

     negative rho (up, down):  4.273E-07 0.000E+00

     total cpu time spent up to now is       18.7 secs

     total energy              =    -473.70295699 Ry
     estimated scf accuracy    <       0.00033257 Ry

     iteration #  3     ecut=    40.00 Ry     beta= 0.70
     Davidson diagonalization with overlap
     ethr =  5.35E-09,  avg # of iterations =  7.0

     negative rho (up, down):  4.277E-07 0.000E+00

     total cpu time spent up to now is       18.9 secs

     total energy              =    -473.70297147 Ry
     estimated scf accuracy    <       0.00000210 Ry

     iteration #  4     ecut=    40.00 Ry     beta= 0.70
     Davidson diagonalization with overlap
     ethr =  5.35E-09,  avg # of iterations =  2.0

     negative rho (up, down):  4.283E-07 0.000E+00

     total cpu time spent up to now is       19.2 secs

     total energy              =    -473.70297174 Ry
     estimated scf accuracy    <       0.00000015 Ry

     iteration #  5     ecut=    40.00 Ry     beta= 0.70
     Davidson diagonalization with overlap
     ethr =  4.19E-10,  avg # of iterations =  3.5

     negative rho (up, down):  4.287E-07 0.000E+00

     total cpu time spent up to now is       19.4 secs

     total energy              =    -473.70297176 Ry
     estimated scf accuracy    <       0.00000003 Ry

     iteration #  6     ecut=    40.00 Ry     beta= 0.70
     Davidson diagonalization with overlap
     ethr =  9.52E-11,  avg # of iterations =  3.5

     negative rho (up, down):  4.288E-07 0.000E+00

     total cpu time spent up to now is       19.6 secs

     total energy              =    -473.70297176 Ry
     estimated scf accuracy    <       0.00000002 Ry

     iteration #  7     ecut=    40.00 Ry     beta= 0.70
     Davidson diagonalization with overlap
     ethr =  6.23E-11,  avg # of iterations =  1.0

     negative rho (up, down):  4.291E-07 0.000E+00

     total cpu time spent up to now is       19.9 secs

     total energy              =    -473.70297176 Ry
     estimated scf accuracy    <       0.00000001 Ry

     iteration #  8     ecut=    40.00 Ry     beta= 0.70
     Davidson diagonalization with overlap
     ethr =  2.96E-11,  avg # of iterations =  2.0

     negative rho (up, down):  4.292E-07 0.000E+00

     total cpu time spent up to now is       20.1 secs

     total energy              =    -473.70297176 Ry
     estimated scf accuracy    <          1.3E-09 Ry

     iteration #  9     ecut=    40.00 Ry     beta= 0.70
     Davidson diagonalization with overlap
     ethr =  3.59E-12,  avg # of iterations =  6.5

     negative rho (up, down):  4.293E-07 0.000E+00

     total cpu time spent up to now is       20.4 secs

     End of self-consistent calculation

          k = 0.0000 0.0000 0.0000 ( 11947 PWs)   bands (ev):

    -8.6115  -7.1163  -4.3764  -2.7701  -2.7700  -2.7700  -2.7078  -2.7078
    -2.7078  -1.5557  -1.5557  -1.5557  -1.2979  -1.0077  -1.0076  -1.0076
     1.3633   1.3633   1.3633   1.6105   1.6105   1.6105

          k = 0.0000-0.5774 0.0000 ( 12036 PWs)   bands (ev):

    -7.1187  -7.1187  -5.6347  -5.6347  -4.1803  -4.1803  -2.9041  -2.9041
    -2.7287  -2.7287  -0.1101  -0.1101   0.1114   0.1114   1.4772   1.4772
     1.6231   1.6231   2.6636   2.6636   3.0644   3.0644

     the Fermi energy is     1.6231 ev

!    total energy              =    -473.70297176 Ry
     total all-electron energy =     -5827.416351 Ry
     estimated scf accuracy    <          3.4E-10 Ry
     smearing contrib. (-TS)   =      -0.00369331 Ry
     internal energy E=F+TS    =    -473.69927845 Ry

     The total energy is F=E-TS. E is the sum of the following terms:
     one-electron contribution =    -169.75354729 Ry
     hartree contribution      =      95.93792797 Ry
     xc contribution           =     -30.41234455 Ry
     ewald contribution        =      46.67175003 Ry
     one-center paw contrib.   =    -416.14306461 Ry

     convergence has been achieved in   9 iterations

     negative rho (up, down):  4.293E-07 0.000E+00

     Forces acting on atoms (cartesian axes, Ry/au):

     atom    1 type  1   force =    -0.00000031   -0.00000018   -0.00223862
     atom    2 type  1   force =     0.00000031   -0.00000018   -0.00223862
     atom    3 type  1   force =     0.00000000    0.00000035   -0.00223862
     atom    4 type  1   force =     0.00000000   -0.00000000   -0.00224005
     atom    5 type  1   force =     0.00000000   -0.00000109    0.00035339
     atom    6 type  1   force =     0.00000000    0.00000000    0.00035124
     atom    7 type  1   force =     0.00000095    0.00000055    0.00035339
     atom    8 type  1   force =    -0.00000095    0.00000055    0.00035339
     atom    9 type  1   force =     0.00000000    0.00000000    0.00188542
     atom   10 type  1   force =     0.00000000    0.00000065    0.00188636
     atom   11 type  1   force =     0.00000057   -0.00000033    0.00188636
     atom   12 type  1   force =    -0.00000057   -0.00000033    0.00188636

     Total force =     0.003838     Total SCF correction =     0.000023
     Energy error            =      2.2E-06 Ry
     Gradient error          =      1.9E-03 Ry/Bohr

     number of scf cycles    =   7
     number of bfgs steps    =   6

     energy             old  =    -473.7029695296 Ry
     energy             new  =    -473.7029717628 Ry

     CASE: energy            _new < energy            _old

     new trust radius        =       0.0005780450 bohr
     new conv_thr            =       0.0000000010 Ry


ATOMIC_POSITIONS (angstrom)
Al            1.4318910000        0.8267030000        0.0000000000    0   0   0
Al            4.2956740000        0.8267030000        0.0000000000    0   0   0
Al            2.8637820000        3.3068110000        0.0000000000    0   0   0
Al            5.7275650000        3.3068110000        0.0000000000    0   0   0
Al            0.0000000000        1.6534175604        2.3376261799
Al            2.8637820000        1.6534060000        2.3376500543
Al            1.4318809884        4.1335082198        2.3376261799
Al            4.2956840116        4.1335082198        2.3376261799
Al           -0.0000000000       -0.0000000000        4.6806049835
Al            2.8637820000        0.0000020704        4.6805988740
Al            1.4318927930        2.4801069648        4.6805988740
Al            4.2956722070        2.4801069648        4.6805988740



     Writing config-only to output data dir ./output/pwscf.save/
     NEW-OLD atomic charge density approx. for the potential

     negative rho (up, down):  4.171E-07 0.000E+00

     total cpu time spent up to now is       20.9 secs

     Self-consistent Calculation

     iteration #  1     ecut=    40.00 Ry     beta= 0.70
     Davidson diagonalization with overlap
     ethr =  1.00E-06,  avg # of iterations =  2.0

     Threshold (ethr) on eigenvalues was too large:
     Diagonalizing with lowered threshold

     Davidson diagonalization with overlap
     ethr =  6.54E-09,  avg # of iterations =  3.5

     negative rho (up, down):  4.255E-07 0.000E+00

     total cpu time spent up to now is       21.3 secs

     total energy              =    -473.70297105 Ry
     estimated scf accuracy    <       0.00000540 Ry

     iteration #  2     ecut=    40.00 Ry     beta= 0.70
     Davidson diagonalization with overlap
     ethr =  1.50E-08,  avg # of iterations =  7.5

     negative rho (up, down):  4.262E-07 0.000E+00

     total cpu time spent up to now is       21.5 secs

     total energy              =    -473.70293550 Ry
     estimated scf accuracy    <       0.00086943 Ry

     iteration #  3     ecut=    40.00 Ry     beta= 0.70
     Davidson diagonalization with overlap
     ethr =  1.50E-08,  avg # of iterations =  7.0

     negative rho (up, down):  4.269E-07 0.000E+00

     total cpu time spent up to now is       21.8 secs

     total energy              =    -473.70297404 Ry
     estimated scf accuracy    <       0.00001053 Ry

     iteration #  4     ecut=    40.00 Ry     beta= 0.70
     Davidson diagonalization with overlap
     ethr =  1.50E-08,  avg # of iterations =  2.0

     negative rho (up, down):  4.281E-07 0.000E+00

     total cpu time spent up to now is       22.1 secs

     total energy              =    -473.70297518 Ry
     estimated scf accuracy    <       0.00000028 Ry

     iteration #  5     ecut=    40.00 Ry     beta= 0.70
     Davidson diagonalization with overlap
     ethr =  7.69E-10,  avg # of iterations =  5.0

     negative rho (up, down):  4.285E-07 0.000E+00

     total cpu time spent up to now is       22.3 secs

     total energy              =    -473.70297524 Ry
     estimated scf accuracy    <       0.00000013 Ry

     iteration #  6     ecut=    40.00 Ry     beta= 0.70
     Davidson diagonalization with overlap
     ethr =  3.57E-10,  avg # of iterations =  1.5

     negative rho (up, down):  4.290E-07 0.000E+00

     total cpu time spent up to now is       22.5 secs

     total energy              =    -473.70297524 Ry
     estimated scf accuracy    <       0.00000005 Ry

     iteration #  7     ecut=    40.00 Ry     beta= 0.70
     Davidson diagonalization with overlap
     ethr =  1.39E-10,  avg # of iterations =  3.5

     negative rho (up, down):  4.291E-07 0.000E+00

     total cpu time spent up to now is       22.8 secs

     total energy              =    -473.70297524 Ry
     estimated scf accuracy    <          1.9E-09 Ry

     iteration #  8     ecut=    40.00 Ry     beta= 0.70
     Davidson diagonalization with overlap
     ethr =  5.23E-12,  avg # of iterations =  8.5

     negative rho (up, down):  4.293E-07 0.000E+00

     total cpu time spent up to now is       23.1 secs

     End of self-consistent calculation

          k = 0.0000 0.0000 0.0000 ( 11947 PWs)   bands (ev):

    -8.6114  -7.1163  -4.3765  -2.7699  -2.7699  -2.7699  -2.7077  -2.7077
    -2.7076  -1.5557  -1.5557  -1.5557  -1.2980  -1.0077  -1.0077  -1.0077
     1.3632   1.3632   1.3632   1.6103   1.6103   1.6103

          k = 0.0000-0.5774 0.0000 ( 12036 PWs)   bands (ev):

    -7.1186  -7.1186  -5.6348  -5.6348  -4.1801  -4.1801  -2.9043  -2.9043
    -2.7287  -2.7287  -0.1102  -0.1102   0.1113   0.1113   1.4774   1.4774
     1.6232   1.6232   2.6636   2.6636   3.0643   3.0643

     the Fermi energy is     1.6231 ev

!    total energy              =    -473.70297524 Ry
     total all-electron energy =     -5827.416354 Ry
     estimated scf accuracy    <          5.6E-10 Ry
     smearing contrib. (-TS)   =      -0.00368973 Ry
     internal energy E=F+TS    =    -473.69928552 Ry

     The total energy is F=E-TS. E is the sum of the following terms:
     one-electron contribution =    -169.73246137 Ry
     hartree contribution      =      95.92716347 Ry
     xc contribution           =     -30.41210811 Ry
     ewald contribution        =      46.66115357 Ry
     one-center paw contrib.   =    -416.14303308 Ry

     convergence has been achieved in   8 iterations

     negative rho (up, down):  4.293E-07 0.000E+00

     Forces acting on atoms (cartesian axes, Ry/au):

     atom    1 type  1   force =     0.00000122    0.00000070   -0.00232505
     atom    2 type  1   force =    -0.00000122    0.00000070   -0.00232505
     atom    3 type  1   force =     0.00000000   -0.00000141   -0.00232505
     atom    4 type  1   force =     0.00000000    0.00000000   -0.00232748
     atom    5 type  1   force =    -0.00000000   -0.00000322    0.00042629
     atom    6 type  1   force =    -0.00000000    0.00000000    0.00041962
     atom    7 type  1   force =     0.00000279    0.00000161    0.00042629
     atom    8 type  1   force =    -0.00000279    0.00000161    0.00042629
     atom    9 type  1   force =     0.00000000    0.00000000    0.00189913
     atom   10 type  1   force =     0.00000000   -0.00000178    0.00190167
     atom   11 type  1   force =    -0.00000154    0.00000089    0.00190167
     atom   12 type  1   force =     0.00000154    0.00000089    0.00190167

     Total force =     0.003896     Total SCF correction =     0.000022
     Energy error            =      3.5E-06 Ry
     Gradient error          =      1.9E-03 Ry/Bohr

     number of scf cycles    =   8
     number of bfgs steps    =   7

     energy             old  =    -473.7029717628 Ry
     energy             new  =    -473.7029752444 Ry

     CASE: energy            _new < energy            _old

     new trust radius        =       0.0008670675 bohr
     new conv_thr            =       0.0000000010 Ry


ATOMIC_POSITIONS (angstrom)
Al            1.4318910000        0.8267030000        0.0000000000    0   0   0
Al            4.2956740000        0.8267030000        0.0000000000    0   0   0
Al            2.8637820000        3.3068110000        0.0000000000    0   0   0
Al            5.7275650000        3.3068110000        0.0000000000    0   0   0
Al            0.0000000000        1.6534286661        2.3372077072
Al            2.8637820000        1.6534060000        2.3372463953
Al            1.4318713706        4.1335026670        2.3372077072
Al            4.2956936294        4.1335026670        2.3372077072
Al           -0.0000000000       -0.0000000000        4.6810638158
Al            2.8637820000        0.0000135942        4.6810545823
Al            1.4319027729        2.4801012029        4.6810545823
Al            4.2956622271        2.4801012029        4.6810545823



     Writing config-only to output data dir ./output/pwscf.save/
     NEW-OLD atomic charge density approx. for the potential

     negative rho (up, down):  4.120E-07 0.000E+00

     total cpu time spent up to now is       23.6 secs

     Self-consistent Calculation

     iteration #  1     ecut=    40.00 Ry     beta= 0.70
     Davidson diagonalization with overlap
     ethr =  1.00E-06,  avg # of iterations =  2.0

     Threshold (ethr) on eigenvalues was too large:
     Diagonalizing with lowered threshold

     Davidson diagonalization with overlap
     ethr =  1.32E-08,  avg # of iterations =  3.5

     negative rho (up, down):  4.236E-07 0.000E+00

     total cpu time spent up to now is       24.0 secs

     total energy              =    -473.70297203 Ry
     estimated scf accuracy    <       0.00001073 Ry

     iteration #  2     ecut=    40.00 Ry     beta= 0.70
     Davidson diagonalization with overlap
     ethr =  2.98E-08,  avg # of iterations =  7.5

     negative rho (up, down):  4.247E-07 0.000E+00

     total cpu time spent up to now is       24.2 secs

     total energy              =    -473.70290349 Ry
     estimated scf accuracy    <       0.00168038 Ry

     iteration #  3     ecut=    40.00 Ry     beta= 0.70
     Davidson diagonalization with overlap
     ethr =  2.98E-08,  avg # of iterations =  7.0

     negative rho (up, down):  4.257E-07 0.000E+00

     total cpu time spent up to now is       24.5 secs

     total energy              =    -473.70297796 Ry
     estimated scf accuracy    <       0.00002288 Ry

     iteration #  4     ecut=    40.00 Ry     beta= 0.70
     Davidson diagonalization with overlap
     ethr =  2.98E-08,  avg # of iterations =  2.0

     negative rho (up, down):  4.276E-07 0.000E+00

     total cpu time spent up to now is       24.7 secs

     total energy              =    -473.70298025 Ry
     estimated scf accuracy    <       0.00000073 Ry

     iteration #  5     ecut=    40.00 Ry     beta= 0.70
     Davidson diagonalization with overlap
     ethr =  2.04E-09,  avg # of iterations =  2.0

     negative rho (up, down):  4.284E-07 0.000E+00

     total cpu time spent up to now is       25.0 secs

     total energy              =    -473.70298032 Ry
     estimated scf accuracy    <       0.00000016 Ry

     iteration #  6     ecut=    40.00 Ry     beta= 0.70
     Davidson diagonalization with overlap
     ethr =  4.48E-10,  avg # of iterations =  4.0

     negative rho (up, down):  4.288E-07 0.000E+00

     total cpu time spent up to now is       25.2 secs

     total energy              =    -473.70298035 Ry
     estimated scf accuracy    <       0.00000004 Ry

     iteration #  7     ecut=    40.00 Ry     beta= 0.70
     Davidson diagonalization with overlap
     ethr =  1.19E-10,  avg # of iterations =  3.0

     negative rho (up, down):  4.290E-07 0.000E+00

     total cpu time spent up to now is       25.4 secs

     total energy              =    -473.70298035 Ry
     estimated scf accuracy    <          6.3E-09 Ry

     iteration #  8     ecut=    40.00 Ry     beta= 0.70
     Davidson diagonalization with overlap
     ethr =  1.76E-11,  avg # of iterations =  4.5

     negative rho (up, down):  4.294E-07 0.000E+00

     total cpu time spent up to now is       25.7 secs

     End of self-consistent calculation

          k = 0.0000 0.0000 0.0000 ( 11947 PWs)   bands (ev):

    -8.6112  -7.1164  -4.3768  -2.7698  -2.7698  -2.7698  -2.7074  -2.7074
    -2.7074  -1.5557  -1.5557  -1.5557  -1.2982  -1.0078  -1.0078  -1.0077
     1.3630   1.3630   1.3630   1.6100   1.6100   1.6100

          k = 0.0000-0.5774 0.0000 ( 12036 PWs)   bands (ev):

    -7.1184  -7.1184  -5.6348  -5.6348  -4.1799  -4.1799  -2.9046  -2.9046
    -2.7287  -2.7287  -0.1104  -0.1104   0.1111   0.1111   1.4776   1.4776
     1.6234   1.6234   2.6636   2.6636   3.0641   3.0641

     the Fermi energy is     1.6231 ev

!    total energy              =    -473.70298035 Ry
     total all-electron energy =     -5827.416359 Ry
     estimated scf accuracy    <          8.7E-10 Ry
     smearing contrib. (-TS)   =      -0.00368424 Ry
     internal energy E=F+TS    =    -473.69929611 Ry

     The total energy is F=E-TS. E is the sum of the following terms:
     one-electron contribution =    -169.70065870 Ry
     hartree contribution      =      95.91086558 Ry
     xc contribution           =     -30.41175436 Ry
     ewald contribution        =      46.64523800 Ry
     one-center paw contrib.   =    -416.14298663 Ry

     convergence has been achieved in   8 iterations

     negative rho (up, down):  4.294E-07 0.000E+00

     Forces acting on atoms (cartesian axes, Ry/au):

     atom    1 type  1   force =     0.00000242    0.00000140   -0.00245255
     atom    2 type  1   force =    -0.00000242    0.00000140   -0.00245255
     atom    3 type  1   force =     0.00000000   -0.00000279   -0.00245255
     atom    4 type  1   force =     0.00000000    0.00000000   -0.00245605
     atom    5 type  1   force =    -0.00000000   -0.00000645    0.00053006
     atom    6 type  1   force =     0.00000000    0.00000000    0.00051766
     atom    7 type  1   force =     0.00000559    0.00000323    0.00053006
     atom    8 type  1   force =    -0.00000559    0.00000323    0.00053006
     atom    9 type  1   force =     0.00000000    0.00000000    0.00192273
     atom   10 type  1   force =    -0.00000000   -0.00000560    0.00192771
     atom   11 type  1   force =    -0.00000485    0.00000280    0.00192771
     atom   12 type  1   force =     0.00000485    0.00000280    0.00192771

     Total force =     0.003995     Total SCF correction =     0.000033
     Energy error            =      5.1E-06 Ry
     Gradient error          =      1.9E-03 Ry/Bohr

     number of scf cycles    =   9
     number of bfgs steps    =   8

     energy             old  =    -473.7029752444 Ry
     energy             new  =    -473.7029803535 Ry

     CASE: energy            _new < energy            _old

     new trust radius        =       0.0013006012 bohr
     new conv_thr            =       0.0000000010 Ry


ATOMIC_POSITIONS (angstrom)
Al            1.4318910000        0.8267030000        0.0000000000    0   0   0
Al            4.2956740000        0.8267030000        0.0000000000    0   0   0
Al            2.8637820000        3.3068110000        0.0000000000    0   0   0
Al            5.7275650000        3.3068110000        0.0000000000    0   0   0
Al            0.0000000000        1.6534438064        2.3366197761
Al            2.8637820000        1.6534060000        2.3366778395
Al            1.4318582587        4.1334950968        2.3366197761
Al            4.2957067413        4.1334950968        2.3366197761
Al           -0.0000000000       -0.0000000000        4.6817520644
Al            2.8637820000        0.0000287643        4.6817395287
Al            1.4319159106        2.4800936178        4.6817395287
Al            4.2956490894        2.4800936178        4.6817395287



     Writing config-only to output data dir ./output/pwscf.save/
     NEW-OLD atomic charge density approx. for the potential

     negative rho (up, down):  4.051E-07 0.000E+00

     total cpu time spent up to now is       26.2 secs

     Self-consistent Calculation

     iteration #  1     ecut=    40.00 Ry     beta= 0.70
     Davidson diagonalization with overlap
     ethr =  1.00E-06,  avg # of iterations =  2.0

     Threshold (ethr) on eigenvalues was too large:
     Diagonalizing with lowered threshold

     Davidson diagonalization with overlap
     ethr =  2.68E-08,  avg # of iterations =  3.5

     negative rho (up, down):  4.210E-07 0.000E+00

     total cpu time spent up to now is       26.6 secs

     total energy              =    -473.70297069 Ry
     estimated scf accuracy    <       0.00002204 Ry

     iteration #  2     ecut=    40.00 Ry     beta= 0.70
     Davidson diagonalization with overlap
     ethr =  6.12E-08,  avg # of iterations =  6.5

     negative rho (up, down):  4.225E-07 0.000E+00

     total cpu time spent up to now is       26.9 secs

     total energy              =    -473.70282659 Ry
     estimated scf accuracy    <       0.00354333 Ry

     iteration #  3     ecut=    40.00 Ry     beta= 0.70
     Davidson diagonalization with overlap
     ethr =  6.12E-08,  avg # of iterations =  7.0

     negative rho (up, down):  4.237E-07 0.000E+00

     total cpu time spent up to now is       27.1 secs

     total energy              =    -473.70298332 Ry
     estimated scf accuracy    <       0.00004099 Ry

     iteration #  4     ecut=    40.00 Ry     beta= 0.70
     Davidson diagonalization with overlap
     ethr =  6.12E-08,  avg # of iterations =  2.0

     negative rho (up, down):  4.270E-07 0.000E+00

     total cpu time spent up to now is       27.4 secs

     total energy              =    -473.70298757 Ry
     estimated scf accuracy    <       0.00000128 Ry

     iteration #  5     ecut=    40.00 Ry     beta= 0.70
     Davidson diagonalization with overlap
     ethr =  3.56E-09,  avg # of iterations =  3.0

     negative rho (up, down):  4.279E-07 0.000E+00

     total cpu time spent up to now is       27.6 secs

     total energy              =    -473.70298775 Ry
     estimated scf accuracy    <       0.00000042 Ry

     iteration #  6     ecut=    40.00 Ry     beta= 0.70
     Davidson diagonalization with overlap
     ethr =  1.16E-09,  avg # of iterations =  3.5

     negative rho (up, down):  4.284E-07 0.000E+00

     total cpu time spent up to now is       27.8 secs

     total energy              =    -473.70298780 Ry
     estimated scf accuracy    <       0.00000008 Ry

     iteration #  7     ecut=    40.00 Ry     beta= 0.70
     Davidson diagonalization with overlap
     ethr =  2.26E-10,  avg # of iterations =  4.0

     negative rho (up, down):  4.286E-07 0.000E+00

     total cpu time spent up to now is       28.1 secs

     total energy              =    -473.70298781 Ry
     estimated scf accuracy    <          9.0E-09 Ry

     iteration #  8     ecut=    40.00 Ry     beta= 0.70
     Davidson diagonalization with overlap
     ethr =  2.50E-11,  avg # of iterations =  3.0

     negative rho (up, down):  4.291E-07 0.000E+00

     total cpu time spent up to now is       28.3 secs

     total energy              =    -473.70298781 Ry
     estimated scf accuracy    <          1.8E-09 Ry

     iteration #  9     ecut=    40.00 Ry     beta= 0.70
     Davidson diagonalization with overlap
     ethr =  5.05E-12,  avg # of iterations =  5.0

     negative rho (up, down):  4.293E-07 0.000E+00

     total cpu time spent up to now is       28.6 secs

     total energy              =    -473.70298781 Ry
     estimated scf accuracy    <          1.2E-09 Ry

     iteration # 10     ecut=    40.00 Ry     beta= 0.70
     Davidson diagonalization with overlap
     ethr =  3.35E-12,  avg # of iterations =  4.5

     negative rho (up, down):  4.294E-07 0.000E+00

     total cpu time spent up to now is       28.8 secs

     End of self-consistent calculation

          k = 0.0000 0.0000 0.0000 ( 11947 PWs)   bands (ev):

    -8.6110  -7.1165  -4.3773  -2.7696  -2.7695  -2.7695  -2.7071  -2.7071
    -2.7071  -1.5558  -1.5557  -1.5557  -1.2986  -1.0079  -1.0079  -1.0079
     1.3626   1.3626   1.3626   1.6095   1.6095   1.6095

          k = 0.0000-0.5774 0.0000 ( 12036 PWs)   bands (ev):

    -7.1182  -7.1181  -5.6349  -5.6349  -4.1797  -4.1797  -2.9050  -2.9050
    -2.7288  -2.7288  -0.1108  -0.1108   0.1107   0.1107   1.4778   1.4779
     1.6235   1.6235   2.6636   2.6636   3.0638   3.0638

     the Fermi energy is     1.6230 ev

!    total energy              =    -473.70298781 Ry
     total all-electron energy =     -5827.416367 Ry
     estimated scf accuracy    <          6.0E-10 Ry
     smearing contrib. (-TS)   =      -0.00367575 Ry
     internal energy E=F+TS    =    -473.69931206 Ry

     The total energy is F=E-TS. E is the sum of the following terms:
     one-electron contribution =    -169.65348434 Ry
     hartree contribution      =      95.88699197 Ry
     xc contribution           =     -30.41123648 Ry
     ewald contribution        =      46.62133582 Ry
     one-center paw contrib.   =    -416.14291904 Ry

     convergence has been achieved in  10 iterations

     negative rho (up, down):  4.294E-07 0.000E+00

     Forces acting on atoms (cartesian axes, Ry/au):

     atom    1 type  1   force =     0.00000611    0.00000353   -0.00263599
     atom    2 type  1   force =    -0.00000611    0.00000353   -0.00263599
     atom    3 type  1   force =     0.00000000   -0.00000705   -0.00263599
     atom    4 type  1   force =    -0.00000000    0.00000000   -0.00264122
     atom    5 type  1   force =     0.00000000   -0.00001114    0.00067722
     atom    6 type  1   force =     0.00000000    0.00000000    0.00065766
     atom    7 type  1   force =     0.00000965    0.00000557    0.00067722
     atom    8 type  1   force =    -0.00000965    0.00000557    0.00067722
     atom    9 type  1   force =     0.00000000    0.00000000    0.00195805
     atom   10 type  1   force =     0.00000000   -0.00000857    0.00196727
     atom   11 type  1   force =    -0.00000742    0.00000429    0.00196727
     atom   12 type  1   force =     0.00000742    0.00000429    0.00196727

     Total force =     0.004154     Total SCF correction =     0.000033
     Energy error            =      7.5E-06 Ry
     Gradient error          =      2.0E-03 Ry/Bohr

     number of scf cycles    =  10
     number of bfgs steps    =   9

     energy             old  =    -473.7029803535 Ry
     energy             new  =    -473.7029878109 Ry

     CASE: energy            _new < energy            _old

     new trust radius        =       0.0019509018 bohr
     new conv_thr            =       0.0000000010 Ry


ATOMIC_POSITIONS (angstrom)
Al            1.4318910000        0.8267030000        0.0000000000    0   0   0
Al            4.2956740000        0.8267030000        0.0000000000    0   0   0
Al            2.8637820000        3.3068110000        0.0000000000    0   0   0
Al            5.7275650000        3.3068110000        0.0000000000    0   0   0
Al            0.0000000000        1.6534643673        2.3357916869
Al            2.8637820000        1.6534060000        2.3358756727
Al            1.4318404524        4.1334848164        2.3357916869
Al            4.2957245476        4.1334848164        2.3357916869
Al           -0.0000000000       -0.0000000000        4.6827844371
Al            2.8637820000        0.0000505104        4.6827694420
Al            1.4319347433        2.4800827448        4.6827694420
Al            4.2956302567        2.4800827448        4.6827694420



     Writing config-only to output data dir ./output/pwscf.save/
     NEW-OLD atomic charge density approx. for the potential

     negative rho (up, down):  3.944E-07 0.000E+00

     total cpu time spent up to now is       29.4 secs

     Self-consistent Calculation

     iteration #  1     ecut=    40.00 Ry     beta= 0.70
     Davidson diagonalization with overlap
     ethr =  1.00E-06,  avg # of iterations =  2.0

     Threshold (ethr) on eigenvalues was too large:
     Diagonalizing with lowered threshold

[...]

     new trust radius        =       0.0277949025 bohr
     new conv_thr            =       0.0000000042 Ry


ATOMIC_POSITIONS (angstrom)
Al            1.4318910000        0.8267030000        0.0000000000    0   0   0
Al            4.2956740000        0.8267030000        0.0000000000    0   0   0
Al            2.8637820000        3.3068110000        0.0000000000    0   0   0
Al            5.7275650000        3.3068110000        0.0000000000    0   0   0
Al            0.0000000000        1.6527388968        2.4204693901
Al            2.8637820000        1.6534060000        2.4204899730
Al            1.4324687283        4.1338475516        2.4204693901
Al            4.2950962717        4.1338475516        2.4204693901
Al           -0.0000000000       -0.0000000000        4.8447247809
Al            2.8637820000       -0.0012115532        4.8461996103
Al            1.4308417642        2.4807137766        4.8461996103
Al            4.2967232358        2.4807137766        4.8461996103



     Writing config-only to output data dir ./output/pwscf.save/
     NEW-OLD atomic charge density approx. for the potential

     negative rho (up, down):  4.200E-07 0.000E+00

     total cpu time spent up to now is       81.0 secs

     Self-consistent Calculation

     iteration #  1     ecut=    40.00 Ry     beta= 0.70
     Davidson diagonalization with overlap
     ethr =  1.00E-06,  avg # of iterations =  7.0

     negative rho (up, down):  2.156E-07 0.000E+00

     total cpu time spent up to now is       81.3 secs

     total energy              =    -473.70428127 Ry
     estimated scf accuracy    <       0.00478181 Ry

     iteration #  2     ecut=    40.00 Ry     beta= 0.70
     Davidson diagonalization with overlap
     ethr =  1.33E-05,  avg # of iterations =  7.5

     negative rho (up, down):  2.116E-07 0.000E+00

     total cpu time spent up to now is       81.5 secs

     total energy              =    -473.67055209 Ry
     estimated scf accuracy    <       0.88947269 Ry

     iteration #  3     ecut=    40.00 Ry     beta= 0.70
     Davidson diagonalization with overlap
     ethr =  1.33E-05,  avg # of iterations =  7.0

     negative rho (up, down):  2.047E-07 0.000E+00

     total cpu time spent up to now is       81.8 secs

     total energy              =    -473.70781634 Ry
     estimated scf accuracy    <       0.00228029 Ry

     iteration #  4     ecut=    40.00 Ry     beta= 0.70
     Davidson diagonalization with overlap
     ethr =  6.33E-06,  avg # of iterations =  4.5

     negative rho (up, down):  1.933E-07 0.000E+00

     total cpu time spent up to now is       82.1 secs

     total energy              =    -473.70815690 Ry
     estimated scf accuracy    <       0.00016740 Ry

     iteration #  5     ecut=    40.00 Ry     beta= 0.70
     Davidson diagonalization with overlap
     ethr =  4.65E-07,  avg # of iterations =  2.0

     negative rho (up, down):  1.770E-07 0.000E+00

     total cpu time spent up to now is       82.3 secs

     total energy              =    -473.70818236 Ry
     estimated scf accuracy    <       0.00001826 Ry

     iteration #  6     ecut=    40.00 Ry     beta= 0.70
     Davidson diagonalization with overlap
     ethr =  5.07E-08,  avg # of iterations =  5.5

     negative rho (up, down):  1.672E-07 0.000E+00

     total cpu time spent up to now is       82.6 secs

     total energy              =    -473.70818297 Ry
     estimated scf accuracy    <       0.00002518 Ry

     iteration #  7     ecut=    40.00 Ry     beta= 0.70
     Davidson diagonalization with overlap
     ethr =  5.07E-08,  avg # of iterations =  2.0

     negative rho (up, down):  1.684E-07 0.000E+00

     total cpu time spent up to now is       82.8 secs

     total energy              =    -473.70818553 Ry
     estimated scf accuracy    <       0.00000076 Ry

     iteration #  8     ecut=    40.00 Ry     beta= 0.70
     Davidson diagonalization with overlap
     ethr =  2.11E-09,  avg # of iterations =  9.0

     negative rho (up, down):  1.684E-07 0.000E+00

     total cpu time spent up to now is       83.1 secs

     total energy              =    -473.70818580 Ry
     estimated scf accuracy    <       0.00000138 Ry

     iteration #  9     ecut=    40.00 Ry     beta= 0.70
     Davidson diagonalization with overlap
     ethr =  2.11E-09,  avg # of iterations =  1.0

     negative rho (up, down):  1.677E-07 0.000E+00

     total cpu time spent up to now is       83.3 secs

     total energy              =    -473.70818579 Ry
     estimated scf accuracy    <       0.00000053 Ry

     iteration # 10     ecut=    40.00 Ry     beta= 0.70
     Davidson diagonalization with overlap
     ethr =  1.48E-09,  avg # of iterations =  1.0

     negative rho (up, down):  1.675E-07 0.000E+00

     total cpu time spent up to now is       83.5 secs

     total energy              =    -473.70818578 Ry
     estimated scf accuracy    <       0.00000014 Ry

     iteration # 11     ecut=    40.00 Ry     beta= 0.70
     Davidson diagonalization with overlap
     ethr =  3.88E-10,  avg # of iterations =  5.0

     negative rho (up, down):  1.674E-07 0.000E+00

     total cpu time spent up to now is       83.8 secs

     total energy              =    -473.70818581 Ry
     estimated scf accuracy    <       0.00000003 Ry

     iteration # 12     ecut=    40.00 Ry     beta= 0.70
     Davidson diagonalization with overlap
     ethr =  7.78E-11,  avg # of iterations =  3.0

     negative rho (up, down):  1.673E-07 0.000E+00

     total cpu time spent up to now is       84.0 secs

     total energy              =    -473.70818581 Ry
     estimated scf accuracy    <       0.00000002 Ry

     iteration # 13     ecut=    40.00 Ry     beta= 0.70
     Davidson diagonalization with overlap
     ethr =  6.29E-11,  avg # of iterations =  2.0

     negative rho (up, down):  1.674E-07 0.000E+00

     total cpu time spent up to now is       84.2 secs

     End of self-consistent calculation

          k = 0.0000 0.0000 0.0000 ( 11947 PWs)   bands (ev):

    -8.3707  -7.0024  -4.4496  -2.5283  -2.5283  -2.5256  -2.4610  -2.4584
    -2.4584  -1.4176  -1.4176  -1.4140  -1.3257  -0.9090  -0.9049  -0.9049
     1.3002   1.3026   1.3026   1.5356   1.5356   1.5383

          k = 0.0000-0.5774 0.0000 ( 12036 PWs)   bands (ev):

    -6.8781  -6.8759  -5.5199  -5.5173  -3.9360  -3.9360  -2.9752  -2.9736
    -2.6072  -2.6069  -0.1517  -0.1516   0.0875   0.0893   1.7179   1.7187
     1.8419   1.8419   2.7933   2.7940   3.0686   3.0690

     the Fermi energy is     1.8295 ev

!    total energy              =    -473.70818581 Ry
     total all-electron energy =     -5827.421565 Ry
     estimated scf accuracy    <          8.7E-10 Ry
     smearing contrib. (-TS)   =      -0.00231561 Ry
     internal energy E=F+TS    =    -473.70587020 Ry

     The total energy is F=E-TS. E is the sum of the following terms:
     one-electron contribution =    -158.77713926 Ry
     hartree contribution      =      90.49532548 Ry
     xc contribution           =     -30.28357960 Ry
     ewald contribution        =      40.98449019 Ry
     one-center paw contrib.   =    -416.12496700 Ry

     convergence has been achieved in  13 iterations

     negative rho (up, down):  1.674E-07 0.000E+00

     Forces acting on atoms (cartesian axes, Ry/au):

     atom    1 type  1   force =     0.00001103    0.00000637    0.00028529
     atom    2 type  1   force =    -0.00001103    0.00000637    0.00028529
     atom    3 type  1   force =    -0.00000000   -0.00001273    0.00028529
     atom    4 type  1   force =     0.00000000   -0.00000000    0.00033777
     atom    5 type  1   force =    -0.00000000    0.00025028    0.00029918
     atom    6 type  1   force =     0.00000000    0.00000000    0.00048957
     atom    7 type  1   force =    -0.00021674   -0.00012514    0.00029918
     atom    8 type  1   force =     0.00021674   -0.00012514    0.00029918
     atom    9 type  1   force =     0.00000000   -0.00000000   -0.00053532
     atom   10 type  1   force =    -0.00000000    0.00044489   -0.00068181
     atom   11 type  1   force =     0.00038529   -0.00022245   -0.00068181
     atom   12 type  1   force =    -0.00038529   -0.00022245   -0.00068181

     Total force =     0.001724     Total SCF correction =     0.000033
     Energy error            =      2.3E-04 Ry
     Gradient error          =      6.8E-04 Ry/Bohr

     number of scf cycles    =  25
     number of bfgs steps    =  24

     energy             old  =    -473.7079546331 Ry
     energy             new  =    -473.7081858108 Ry

     CASE: energy            _new < energy            _old

     new trust radius        =       0.0103948657 bohr
     new conv_thr            =       0.0000000010 Ry


ATOMIC_POSITIONS (angstrom)
Al            1.4318910000        0.8267030000        0.0000000000    0   0   0
Al            4.2956740000        0.8267030000        0.0000000000    0   0   0
Al            2.8637820000        3.3068110000        0.0000000000    0   0   0
Al            5.7275650000        3.3068110000        0.0000000000    0   0   0
Al            0.0000000000        1.6528908917        2.4205264699
Al            2.8637820000        1.6534060000        2.4206344525
Al            1.4323370969        4.1337715542        2.4205264699
Al            4.2952279031        4.1337715542        2.4205264699
Al           -0.0000000000       -0.0000000000        4.8393587361
Al            2.8637820000       -0.0009094757        4.8407071849
Al            1.4311033710        2.4805627378        4.8407071849
Al            4.2964616290        2.4805627378        4.8407071849



     Writing config-only to output data dir ./output/pwscf.save/
     NEW-OLD atomic charge density approx. for the potential

     negative rho (up, down):  4.090E-07 0.000E+00

     total cpu time spent up to now is       84.8 secs

     Self-consistent Calculation

     iteration #  1     ecut=    40.00 Ry     beta= 0.70
     Davidson diagonalization with overlap
     ethr =  1.00E-06,  avg # of iterations =  3.0

     negative rho (up, down):  2.277E-07 0.000E+00

     total cpu time spent up to now is       85.0 secs

     total energy              =    -473.70816205 Ry
     estimated scf accuracy    <       0.00004128 Ry

     iteration #  2     ecut=    40.00 Ry     beta= 0.70
     Davidson diagonalization with overlap
     ethr =  1.15E-07,  avg # of iterations =  7.0

     negative rho (up, down):  2.276E-07 0.000E+00

     total cpu time spent up to now is       85.3 secs

     total energy              =    -473.70789748 Ry
     estimated scf accuracy    <       0.00687184 Ry

     iteration #  3     ecut=    40.00 Ry     beta= 0.70
     Davidson diagonalization with overlap
     ethr =  1.15E-07,  avg # of iterations =  7.5

     negative rho (up, down):  2.243E-07 0.000E+00

     total cpu time spent up to now is       85.6 secs

     total energy              =    -473.70820009 Ry
     estimated scf accuracy    <       0.00005744 Ry

     iteration #  4     ecut=    40.00 Ry     beta= 0.70
     Davidson diagonalization with overlap
     ethr =  1.15E-07,  avg # of iterations =  2.0

     negative rho (up, down):  2.045E-07 0.000E+00

     total cpu time spent up to now is       85.8 secs

     total energy              =    -473.70819884 Ry
     estimated scf accuracy    <       0.00001646 Ry

     iteration #  5     ecut=    40.00 Ry     beta= 0.70
     Davidson diagonalization with overlap
     ethr =  4.57E-08,  avg # of iterations =  3.0

     negative rho (up, down):  1.948E-07 0.000E+00

     total cpu time spent up to now is       86.1 secs

     total energy              =    -473.70820118 Ry
     estimated scf accuracy    <       0.00000113 Ry

     iteration #  6     ecut=    40.00 Ry     beta= 0.70
     Davidson diagonalization with overlap
     ethr =  3.13E-09,  avg # of iterations =  4.5

     negative rho (up, down):  1.858E-07 0.000E+00

     total cpu time spent up to now is       86.3 secs

     total energy              =    -473.70820164 Ry
     estimated scf accuracy    <       0.00000093 Ry

     iteration #  7     ecut=    40.00 Ry     beta= 0.70
     Davidson diagonalization with overlap
     ethr =  2.58E-09,  avg # of iterations =  2.0

     negative rho (up, down):  1.833E-07 0.000E+00

     total cpu time spent up to now is       86.5 secs

     total energy              =    -473.70820167 Ry
     estimated scf accuracy    <       0.00000012 Ry

     iteration #  8     ecut=    40.00 Ry     beta= 0.70
     Davidson diagonalization with overlap
     ethr =  3.39E-10,  avg # of iterations =  5.0

     negative rho (up, down):  1.828E-07 0.000E+00

     total cpu time spent up to now is       86.8 secs

     total energy              =    -473.70820169 Ry
     estimated scf accuracy    <       0.00000002 Ry

     iteration #  9     ecut=    40.00 Ry     beta= 0.70
     Davidson diagonalization with overlap
     ethr =  6.57E-11,  avg # of iterations =  4.5

     negative rho (up, down):  1.828E-07 0.000E+00

     total cpu time spent up to now is       87.0 secs

     total energy              =    -473.70820169 Ry
     estimated scf accuracy    <       0.00000001 Ry

     iteration # 10     ecut=    40.00 Ry     beta= 0.70
     Davidson diagonalization with overlap
     ethr =  2.93E-11,  avg # of iterations =  3.0

     negative rho (up, down):  1.828E-07 0.000E+00

     total cpu time spent up to now is       87.3 secs

     total energy              =    -473.70820170 Ry
     estimated scf accuracy    <          1.1E-09 Ry

     iteration # 11     ecut=    40.00 Ry     beta= 0.70
     Davidson diagonalization with overlap
     ethr =  3.00E-12,  avg # of iterations =  7.0

     negative rho (up, down):  1.828E-07 0.000E+00

     total cpu time spent up to now is       87.5 secs

     End of self-consistent calculation

          k = 0.0000 0.0000 0.0000 ( 11947 PWs)   bands (ev):

    -8.3802  -7.0073  -4.4475  -2.5376  -2.5376  -2.5356  -2.4702  -2.4682
    -2.4682  -1.4232  -1.4232  -1.4204  -1.3255  -0.9128  -0.9098  -0.9098
     1.3025   1.3043   1.3043   1.5379   1.5379   1.5399

          k = 0.0000-0.5774 0.0000 ( 12036 PWs)   bands (ev):

    -6.8873  -6.8856  -5.5246  -5.5227  -3.9456  -3.9456  -2.9730  -2.9718
    -2.6124  -2.6121  -0.1506  -0.1504   0.0878   0.0891   1.7087   1.7094
     1.8331   1.8331   2.7882   2.7887   3.0676   3.0678

     the Fermi energy is     1.8207 ev

!    total energy              =    -473.70820170 Ry
     total all-electron energy =     -5827.421581 Ry
     estimated scf accuracy    <          8.3E-11 Ry
     smearing contrib. (-TS)   =      -0.00231551 Ry
     internal energy E=F+TS    =    -473.70588619 Ry

     The total energy is F=E-TS. E is the sum of the following terms:
     one-electron contribution =    -159.13119272 Ry
     hartree contribution      =      90.66941287 Ry
     xc contribution           =     -30.28774773 Ry
     ewald contribution        =      41.16919387 Ry
     one-center paw contrib.   =    -416.12555248 Ry

     convergence has been achieved in  11 iterations

     negative rho (up, down):  1.828E-07 0.000E+00

     Forces acting on atoms (cartesian axes, Ry/au):

     atom    1 type  1   force =     0.00001194    0.00000689    0.00012046
     atom    2 type  1   force =    -0.00001194    0.00000689    0.00012046
     atom    3 type  1   force =     0.00000000   -0.00001379    0.00012046
     atom    4 type  1   force =     0.00000000    0.00000000    0.00015894
     atom    5 type  1   force =     0.00000000    0.00019874   -0.00008626
     atom    6 type  1   force =     0.00000000   -0.00000000    0.00004931
     atom    7 type  1   force =    -0.00017211   -0.00009937   -0.00008626
     atom    8 type  1   force =     0.00017211   -0.00009937   -0.00008626
     atom    9 type  1   force =     0.00000000   -0.00000000    0.00001622
     atom   10 type  1   force =     0.00000000    0.00033015   -0.00010902
     atom   11 type  1   force =     0.00028592   -0.00016508   -0.00010902
     atom   12 type  1   force =    -0.00028592   -0.00016508   -0.00010902

     Total force =     0.000711     Total SCF correction =     0.000009
     Energy error            =      1.6E-05 Ry
     Gradient error          =      3.3E-04 Ry/Bohr

     bfgs converged in  26 scf cycles and  25 bfgs steps
     (criteria: energy <  1.0E-04 Ry, force <  7.0E-04 Ry/Bohr)

     End of BFGS Geometry Optimization

     Final energy             =    -473.7082016956 Ry

     File ./output/pwscf.bfgs deleted, as requested
Begin final coordinates

ATOMIC_POSITIONS (angstrom)
Al            1.4318910000        0.8267030000        0.0000000000    0   0   0
Al            4.2956740000        0.8267030000        0.0000000000    0   0   0
Al            2.8637820000        3.3068110000        0.0000000000    0   0   0
Al            5.7275650000        3.3068110000        0.0000000000    0   0   0
Al            0.0000000000        1.6528908917        2.4205264699
Al            2.8637820000        1.6534060000        2.4206344525
Al            1.4323370969        4.1337715542        2.4205264699
Al            4.2952279031        4.1337715542        2.4205264699
Al           -0.0000000000       -0.0000000000        4.8393587361
Al            2.8637820000       -0.0009094757        4.8407071849
Al            1.4311033710        2.4805627378        4.8407071849
Al            4.2964616290        2.4805627378        4.8407071849
End final coordinates



     Writing all to output data dir ./output/pwscf.save/
 
     init_run     :      0.31s CPU      0.34s WALL (       1 calls)
     electrons    :     72.45s CPU     74.43s WALL (      26 calls)
     update_pot   :      6.53s CPU      6.58s WALL (      25 calls)
     forces       :      2.68s CPU      2.75s WALL (      26 calls)

     Called by init_run:
     wfcinit      :      0.03s CPU      0.04s WALL (       1 calls)
     potinit      :      0.11s CPU      0.12s WALL (       1 calls)
     hinit0       :      0.06s CPU      0.07s WALL (       1 calls)

     Called by electrons:
     c_bands      :     31.86s CPU     32.27s WALL (     300 calls)
     sum_band     :      9.37s CPU      9.55s WALL (     300 calls)
     v_of_rho     :      2.16s CPU      2.48s WALL (     316 calls)
     newd         :      6.36s CPU      6.48s WALL (     316 calls)
     PAW_pot      :     26.64s CPU     26.79s WALL (     341 calls)
     mix_rho      :      0.41s CPU      0.45s WALL (     300 calls)

     Called by c_bands:
     init_us_2    :      0.48s CPU      0.51s WALL (    1304 calls)
     init_us_2:cp :      0.48s CPU      0.50s WALL (    1304 calls)
     cegterg      :     27.26s CPU     27.57s WALL (     600 calls)

     Called by *egterg:
     cdiaghg      :      1.73s CPU      1.75s WALL (    2995 calls)
     h_psi        :     22.92s CPU     23.18s WALL (    3067 calls)
     s_psi        :      1.01s CPU      1.02s WALL (    3067 calls)
     g_psi        :      0.04s CPU      0.05s WALL (    2465 calls)

     Called by h_psi:
     h_psi:calbec :      1.16s CPU      1.19s WALL (    3067 calls)
     vloc_psi     :     20.62s CPU     20.83s WALL (    3067 calls)
     add_vuspsi   :      1.07s CPU      1.09s WALL (    3067 calls)

     General routines
     calbec       :      1.62s CPU      1.66s WALL (    3925 calls)
     fft          :      3.69s CPU      3.91s WALL (    4377 calls)
     ffts         :      0.10s CPU      0.10s WALL (     616 calls)
     fftw         :     21.15s CPU     21.37s WALL (   88606 calls)
     interpolate  :      0.18s CPU      0.20s WALL (     316 calls)
 
     Parallel routines
 
     PWSCF        :   1m24.89s CPU   1m27.96s WALL

 
   This run was terminated on:  10:56:39  17Jun2023            

=------------------------------------------------------------------------------=
   JOB DONE.
=------------------------------------------------------------------------------=
