   2   2   0   0
  0.1712417E+04  0.1121436E-08  0.1121436E-08  0.3144561E-08  0.1500000E-16
  1.000000000000000E-004
  CAR 
 Pt                                      
      2.78801707    -30.56545164  301     -8.98910469      1.00000000
    -30.565  0.0000E+00  0.0000E+00
    -30.454  0.0000E+00  0.0000E+00
    -30.343  0.0000E+00  0.0000E+00
    -30.232  0.0000E+00  0.0000E+00
    -30.121  0.0000E+00  0.0000E+00
    -30.010  0.0000E+00  0.0000E+00
    -29.898 -0.3460E-31 -0.3847E-32
    -29.787 -0.1383E-23 -0.1537E-24
    -29.676 -0.4558E-17 -0.5068E-18
    -29.565 -0.1183E-11 -0.1315E-12
    -29.454 -0.2506E-07 -0.2786E-08
    -29.342 -0.4008E-04 -0.4459E-05
    -29.231 -0.3991E-02 -0.4482E-03
    -29.120  0.1502E-01  0.1221E-02
    -29.009  0.2286E+00  0.2664E-01
    -28.898  0.6323E-01  0.3367E-01
    -28.787 -0.7763E-02  0.3281E-01
    -28.675 -0.1898E-03  0.3279E-01
    -28.564 -0.2459E-06  0.3279E-01
    -28.453 -0.2340E-10  0.3279E-01
    -28.342 -0.1964E-15  0.3279E-01
    -28.231  0.0000E+00  0.3279E-01
    -28.120  0.0000E+00  0.3279E-01
    -28.008  0.0000E+00  0.3279E-01
    -27.897  0.0000E+00  0.3279E-01
    -27.786  0.0000E+00  0.3279E-01
    -27.675  0.0000E+00  0.3279E-01
    -27.564  0.0000E+00  0.3279E-01
    -27.452  0.0000E+00  0.3279E-01
    -27.341  0.0000E+00  0.3279E-01
    -27.230  0.0000E+00  0.3279E-01
    -27.119  0.0000E+00  0.3279E-01
    -27.008  0.0000E+00  0.3279E-01
    -26.897  0.0000E+00  0.3279E-01
    -26.785  0.0000E+00  0.3279E-01
    -26.674  0.0000E+00  0.3279E-01
    -26.563  0.0000E+00  0.3279E-01
    -26.452  0.0000E+00  0.3279E-01
    -26.341  0.0000E+00  0.3279E-01
    -26.230  0.0000E+00  0.3279E-01
    -26.118  0.0000E+00  0.3279E-01
    -26.007  0.0000E+00  0.3279E-01
    -25.896  0.0000E+00  0.3279E-01
    -25.785  0.0000E+00  0.3279E-01
    -25.674  0.0000E+00  0.3279E-01
    -25.562  0.0000E+00  0.3279E-01
    -25.451  0.0000E+00  0.3279E-01
    -25.340  0.0000E+00  0.3279E-01
    -25.229  0.0000E+00  0.3279E-01
    -25.118  0.0000E+00  0.3279E-01
    -25.007  0.0000E+00  0.3279E-01
    -24.895  0.0000E+00  0.3279E-01
    -24.784  0.0000E+00  0.3279E-01
    -24.673  0.0000E+00  0.3279E-01
    -24.562  0.0000E+00  0.3279E-01
    -24.451  0.0000E+00  0.3279E-01
    -24.339  0.0000E+00  0.3279E-01
    -24.228  0.0000E+00  0.3279E-01
    -24.117  0.0000E+00  0.3279E-01
    -24.006  0.0000E+00  0.3279E-01
    -23.895  0.0000E+00  0.3279E-01
    -23.784  0.0000E+00  0.3279E-01
    -23.672  0.0000E+00  0.3279E-01
    -23.561  0.0000E+00  0.3279E-01
    -23.450  0.0000E+00  0.3279E-01
    -23.339  0.0000E+00  0.3279E-01
    -23.228  0.0000E+00  0.3279E-01
    -23.117  0.0000E+00  0.3279E-01
    -23.005  0.0000E+00  0.3279E-01
    -22.894  0.0000E+00  0.3279E-01
    -22.783  0.0000E+00  0.3279E-01
    -22.672  0.0000E+00  0.3279E-01
    -22.561  0.0000E+00  0.3279E-01
    -22.449  0.0000E+00  0.3279E-01
    -22.338  0.0000E+00  0.3279E-01
    -22.227  0.0000E+00  0.3279E-01
    -22.116  0.0000E+00  0.3279E-01
    -22.005  0.0000E+00  0.3279E-01
    -21.894  0.0000E+00  0.3279E-01
    -21.782  0.0000E+00  0.3279E-01
    -21.671  0.0000E+00  0.3279E-01
    -21.560  0.0000E+00  0.3279E-01
    -21.449  0.0000E+00  0.3279E-01
    -21.338  0.0000E+00  0.3279E-01
    -21.226  0.0000E+00  0.3279E-01
    -21.115  0.0000E+00  0.3279E-01
    -21.004  0.0000E+00  0.3279E-01
    -20.893  0.0000E+00  0.3279E-01
    -20.782  0.0000E+00  0.3279E-01
    -20.671  0.0000E+00  0.3279E-01
    -20.559  0.0000E+00  0.3279E-01
    -20.448  0.0000E+00  0.3279E-01
    -20.337  0.0000E+00  0.3279E-01
    -20.226  0.0000E+00  0.3279E-01
    -20.115  0.0000E+00  0.3279E-01
    -20.004  0.0000E+00  0.3279E-01
    -19.892  0.0000E+00  0.3279E-01
    -19.781  0.0000E+00  0.3279E-01
    -19.670  0.0000E+00  0.3279E-01
    -19.559  0.0000E+00  0.3279E-01
    -19.448  0.0000E+00  0.3279E-01
    -19.336  0.0000E+00  0.3279E-01
    -19.225  0.0000E+00  0.3279E-01
    -19.114  0.0000E+00  0.3279E-01
    -19.003  0.0000E+00  0.3279E-01
    -18.892  0.0000E+00  0.3279E-01
    -18.781  0.0000E+00  0.3279E-01
    -18.669  0.0000E+00  0.3279E-01
    -18.558  0.0000E+00  0.3279E-01
    -18.447  0.0000E+00  0.3279E-01
    -18.336  0.0000E+00  0.3279E-01
    -18.225  0.0000E+00  0.3279E-01
    -18.113  0.0000E+00  0.3279E-01
    -18.002  0.0000E+00  0.3279E-01
    -17.891  0.0000E+00  0.3279E-01
    -17.780  0.0000E+00  0.3279E-01
    -17.669  0.0000E+00  0.3279E-01
    -17.558  0.0000E+00  0.3279E-01
    -17.446  0.0000E+00  0.3279E-01
    -17.335  0.0000E+00  0.3279E-01
    -17.224  0.0000E+00  0.3279E-01
    -17.113  0.0000E+00  0.3279E-01
    -17.002  0.0000E+00  0.3279E-01
    -16.891  0.0000E+00  0.3279E-01
    -16.779  0.0000E+00  0.3279E-01
    -16.668  0.0000E+00  0.3279E-01
    -16.557  0.0000E+00  0.3279E-01
    -16.446  0.0000E+00  0.3279E-01
    -16.335  0.0000E+00  0.3279E-01
    -16.223  0.0000E+00  0.3279E-01
    -16.112  0.0000E+00  0.3279E-01
    -16.001  0.0000E+00  0.3279E-01
    -15.890  0.0000E+00  0.3279E-01
    -15.779  0.0000E+00  0.3279E-01
    -15.668  0.0000E+00  0.3279E-01
    -15.556  0.0000E+00  0.3279E-01
    -15.445  0.0000E+00  0.3279E-01
    -15.334  0.0000E+00  0.3279E-01
    -15.223  0.0000E+00  0.3279E-01
    -15.112  0.0000E+00  0.3279E-01
    -15.000  0.0000E+00  0.3279E-01
    -14.889 -0.5880E-30  0.3279E-01
    -14.778 -0.1606E-22  0.3279E-01
    -14.667 -0.3615E-16  0.3279E-01
    -14.556 -0.6379E-11  0.3279E-01
    -14.445 -0.9150E-07  0.3279E-01
    -14.333 -0.9772E-04  0.3278E-01
    -14.222 -0.6023E-02  0.3211E-01
    -14.111  0.3839E-01  0.3637E-01
    -14.000  0.2354E+00  0.6254E-01
    -13.889  0.3291E-01  0.6620E-01
    -13.778 -0.5583E-02  0.6558E-01
    -13.666 -0.8194E-04  0.6557E-01
    -13.555 -0.7065E-07  0.6557E-01
    -13.444 -0.4549E-11  0.6557E-01
    -13.333  0.0000E+00  0.6557E-01
    -13.222  0.0000E+00  0.6557E-01
    -13.110  0.0000E+00  0.6557E-01
    -12.999  0.0000E+00  0.6557E-01
    -12.888  0.0000E+00  0.6557E-01
    -12.777  0.0000E+00  0.6557E-01
    -12.666  0.0000E+00  0.6557E-01
    -12.555  0.0000E+00  0.6557E-01
    -12.443 -0.4297E-29  0.6557E-01
    -12.332 -0.9836E-22  0.6557E-01
    -12.221 -0.1854E-15  0.6557E-01
    -12.110 -0.2734E-10  0.6557E-01
    -11.999 -0.3271E-06  0.6557E-01
    -11.888 -0.2892E-03  0.6554E-01
    -11.776 -0.1409E-01  0.6398E-01
    -11.665  0.1045E+00  0.7559E-01
    -11.554  0.4655E+00  0.1273E+00
    -11.443  0.4360E-01  0.1322E+00
    -11.332 -0.9249E-02  0.1312E+00
    -11.220 -0.1086E-03  0.1311E+00
    -11.109 -0.7763E-07  0.1311E+00
    -10.998 -0.4173E-11  0.1311E+00
    -10.887  0.0000E+00  0.1311E+00
    -10.776  0.0000E+00  0.1311E+00
    -10.665  0.0000E+00  0.1311E+00
    -10.553  0.0000E+00  0.1311E+00
    -10.442  0.0000E+00  0.1311E+00
    -10.331  0.0000E+00  0.1311E+00
    -10.220  0.0000E+00  0.1311E+00
    -10.109  0.0000E+00  0.1311E+00
     -9.997  0.0000E+00  0.1311E+00
     -9.886 -0.1331E-28  0.1311E+00
     -9.775 -0.2369E-21  0.1311E+00
     -9.664 -0.3305E-15  0.1311E+00
     -9.553 -0.3960E-10  0.1311E+00
     -9.442 -0.3658E-06  0.1311E+00
     -9.330 -0.2467E-03  0.1311E+00
     -9.219 -0.8429E-02  0.1302E+00
     -9.108  0.7491E-01  0.1385E+00
     -8.997  0.2229E+00  0.1633E+00
     -8.886  0.9254E-02  0.1643E+00
     -8.775 -0.3417E-02  0.1639E+00
     -8.663 -0.2948E-04  0.1639E+00
     -8.552 -0.1615E-07  0.1639E+00
     -8.441 -0.6708E-12  0.1639E+00
     -8.330  0.0000E+00  0.1639E+00
     -8.219  0.0000E+00  0.1639E+00
     -8.107  0.0000E+00  0.1639E+00
     -7.996  0.0000E+00  0.1639E+00
     -7.885  0.0000E+00  0.1639E+00
     -7.774  0.0000E+00  0.1639E+00
     -7.663  0.0000E+00  0.1639E+00
     -7.552  0.0000E+00  0.1639E+00
     -7.440  0.0000E+00  0.1639E+00
     -7.329  0.0000E+00  0.1639E+00
     -7.218  0.0000E+00  0.1639E+00
     -7.107  0.0000E+00  0.1639E+00
     -6.996  0.0000E+00  0.1639E+00
     -6.884  0.0000E+00  0.1639E+00
     -6.773  0.0000E+00  0.1639E+00
     -6.662  0.0000E+00  0.1639E+00
     -6.551  0.0000E+00  0.1639E+00
     -6.440  0.0000E+00  0.1639E+00
     -6.329  0.0000E+00  0.1639E+00
     -6.217  0.0000E+00  0.1639E+00
     -6.106  0.0000E+00  0.1639E+00
     -5.995  0.0000E+00  0.1639E+00
     -5.884  0.0000E+00  0.1639E+00
     -5.773  0.0000E+00  0.1639E+00
     -5.662  0.0000E+00  0.1639E+00
     -5.550  0.0000E+00  0.1639E+00
     -5.439  0.0000E+00  0.1639E+00
     -5.328  0.0000E+00  0.1639E+00
     -5.217  0.0000E+00  0.1639E+00
     -5.106  0.0000E+00  0.1639E+00
     -4.994  0.0000E+00  0.1639E+00
     -4.883  0.0000E+00  0.1639E+00
     -4.772  0.0000E+00  0.1639E+00
     -4.661  0.0000E+00  0.1639E+00
     -4.550  0.0000E+00  0.1639E+00
     -4.439  0.0000E+00  0.1639E+00
     -4.327  0.0000E+00  0.1639E+00
     -4.216  0.0000E+00  0.1639E+00
     -4.105  0.0000E+00  0.1639E+00
     -3.994  0.0000E+00  0.1639E+00
     -3.883  0.0000E+00  0.1639E+00
     -3.771  0.0000E+00  0.1639E+00
     -3.660  0.0000E+00  0.1639E+00
     -3.549  0.0000E+00  0.1639E+00
     -3.438  0.0000E+00  0.1639E+00
     -3.327  0.0000E+00  0.1639E+00
     -3.216  0.0000E+00  0.1639E+00
     -3.104 -0.3465E-29  0.1639E+00
     -2.993 -0.8168E-22  0.1639E+00
     -2.882 -0.1586E-15  0.1639E+00
     -2.771 -0.2409E-10  0.1639E+00
     -2.660 -0.2971E-06  0.1639E+00
     -2.549 -0.2711E-03  0.1639E+00
     -2.437 -0.1375E-01  0.1624E+00
     -2.326  0.9957E-01  0.1734E+00
     -2.215  0.4669E+00  0.2254E+00
     -2.104  0.4706E-01  0.2306E+00
     -1.993 -0.9559E-02  0.2295E+00
     -1.881 -0.1165E-03  0.2295E+00
     -1.770 -0.8591E-07  0.2295E+00
     -1.659 -0.4760E-11  0.2295E+00
     -1.548  0.0000E+00  0.2295E+00
     -1.437  0.0000E+00  0.2295E+00
     -1.326  0.0000E+00  0.2295E+00
     -1.214  0.0000E+00  0.2295E+00
     -1.103 -0.8838E-34  0.2295E+00
     -0.992 -0.5376E-26  0.2295E+00
     -0.881 -0.2701E-19  0.2295E+00
     -0.770 -0.1073E-13  0.2295E+00
     -0.659 -0.3495E-09  0.2295E+00
     -0.547 -0.8767E-06  0.2295E+00
     -0.436 -0.1560E-03  0.2295E+00
     -0.325 -0.1448E-02  0.2293E+00
     -0.214  0.1715E-01  0.2312E+00
     -0.103  0.8642E-01  0.2408E+00
      0.009  0.6036E-01  0.2476E+00
      0.120  0.1818E+00  0.2678E+00
      0.231  0.2054E+00  0.2906E+00
      0.342  0.1351E+00  0.3056E+00
      0.453  0.3245E+00  0.3417E+00
      0.564  0.3535E+00  0.3810E+00
      0.676  0.2701E+00  0.4110E+00
      0.787  0.3350E+00  0.4483E+00
      0.898  0.2450E+00  0.4755E+00
      1.009  0.3102E+00  0.5100E+00
      1.120  0.8703E-01  0.5197E+00
      1.232  0.2788E-01  0.5228E+00
      1.343  0.1605E-01  0.5246E+00
      1.454  0.3956E-03  0.5246E+00
      1.565 -0.2584E-03  0.5246E+00
      1.676 -0.2525E-05  0.5246E+00
      1.787 -0.1577E-08  0.5246E+00
      1.899 -0.7457E-13  0.5246E+00
      2.010  0.0000E+00  0.5246E+00
      2.121  0.0000E+00  0.5246E+00
      2.232  0.0000E+00  0.5246E+00
      2.343  0.0000E+00  0.5246E+00
      2.454  0.0000E+00  0.5246E+00
      2.566  0.0000E+00  0.5246E+00
      2.677  0.0000E+00  0.5246E+00
      2.788  0.0000E+00  0.5246E+00
