    2    2   61    1
  0.1712417E+04  0.1121436E-08  0.1121436E-08  0.3144561E-08  0.1500000E-16
  1.000000000000000E-004
  CAR 
 Pt                                      
     10     10     16
 
  0.0000000E+00  0.0000000E+00  0.0000000E+00  0.6250000E-01
    1      -29.049385   1.000000
    2      -14.057267   1.000000
    3      -11.619608   1.000000
    4      -11.619026   1.000000
    5       -9.073360   1.000146
    6       -2.279091   0.000000
    7       -2.278495   0.000000
    8       -0.235390   0.000000
    9        0.059580   0.000000
   10        0.085176   0.000000
   11        0.440518   0.000000
   12        0.542405   0.000000
   13        1.099539   0.000000
   14        1.132067   0.000000
   15        1.182693   0.000000
   16        1.271950   0.000000
 
  0.2500000E+00 -0.1294993E-16  0.0000000E+00  0.1250000E+00
    1      -29.049282   1.000000
    2      -14.057197   1.000000
    3      -11.619430   1.000000
    4      -11.618775   1.000000
    5       -9.073284   0.999981
    6       -2.278889   0.000000
    7       -2.278448   0.000000
    8       -0.140822   0.000000
    9        0.158638   0.000000
   10        0.182324   0.000000
   11        0.522695   0.000000
   12        0.637187   0.000000
   13        0.662127   0.000000
   14        0.951813   0.000000
   15        0.967342   0.000000
   16        0.983788   0.000000
 
  0.5000000E+00 -0.2589986E-16  0.0000000E+00  0.6250000E-01
    1      -29.049295   1.000000
    2      -14.057162   1.000000
    3      -11.619426   1.000000
    4      -11.618888   1.000000
    5       -9.073251   0.999908
    6       -2.279188   0.000000
    7       -2.278825   0.000000
    8        0.071466   0.000000
    9        0.244624   0.000000
   10        0.432488   0.000000
   11        0.450802   0.000000
   12        0.468740   0.000000
   13        0.523691   0.000000
   14        0.773418   0.000000
   15        0.884633   0.000000
   16        0.921310   0.000000
 
  0.0000000E+00  0.2500000E+00  0.0000000E+00  0.1250000E+00
    1      -29.049269   1.000000
    2      -14.057203   1.000000
    3      -11.619413   1.000000
    4      -11.618776   1.000000
    5       -9.073281   0.999973
    6       -2.278937   0.000000
    7       -2.278388   0.000000
    8       -0.139804   0.000000
    9        0.158844   0.000000
   10        0.182361   0.000000
   11        0.525117   0.000000
   12        0.638208   0.000000
   13        0.663482   0.000000
   14        0.948706   0.000000
   15        0.960797   0.000000
   16        0.986720   0.000000
 
  0.2500000E+00  0.2500000E+00  0.0000000E+00  0.1250000E+00
    1      -29.049284   1.000000
    2      -14.057196   1.000000
    3      -11.619393   1.000000
    4      -11.618821   1.000000
    5       -9.073283   0.999978
    6       -2.279017   0.000000
    7       -2.278287   0.000000
    8       -0.140549   0.000000
    9        0.158669   0.000000
   10        0.182365   0.000000
   11        0.523002   0.000000
   12        0.637542   0.000000
   13        0.659104   0.000000
   14        0.951764   0.000000
   15        0.964872   0.000000
   16        0.983180   0.000000
 
  0.5000000E+00  0.2500000E+00  0.0000000E+00  0.1250000E+00
    1      -29.049320   1.000000
    2      -14.057240   1.000000
    3      -11.619497   1.000000
    4      -11.618884   1.000000
    5       -9.073344   1.000111
    6       -2.279357   0.000000
    7       -2.278712   0.000000
    8        0.036441   0.000000
    9        0.347763   0.000000
   10        0.367833   0.000000
   11        0.431495   0.000000
   12        0.535365   0.000000
   13        0.679060   0.000000
   14        0.750782   0.000000
   15        0.768409   0.000000
   16        0.829887   0.000000
 
 -0.2500000E+00  0.2500000E+00  0.0000000E+00  0.1250000E+00
    1      -29.049315   1.000000
    2      -14.057235   1.000000
    3      -11.619482   1.000000
    4      -11.618945   1.000000
    5       -9.073298   1.000011
    6       -2.279163   0.000000
    7       -2.278867   0.000000
    8        0.037662   0.000000
    9        0.348547   0.000000
   10        0.368554   0.000000
   11        0.439309   0.000000
   12        0.525538   0.000000
   13        0.680005   0.000000
   14        0.751803   0.000000
   15        0.766960   0.000000
   16        0.827921   0.000000
 
  0.0000000E+00  0.5000000E+00  0.0000000E+00  0.6250000E-01
    1      -29.049281   1.000000
    2      -14.057168   1.000000
    3      -11.619437   1.000000
    4      -11.618837   1.000000
    5       -9.073247   0.999900
    6       -2.279483   0.000000
    7       -2.278743   0.000000
    8        0.074517   0.000000
    9        0.249836   0.000000
   10        0.431348   0.000000
   11        0.450726   0.000000
   12        0.469009   0.000000
   13        0.524305   0.000000
   14        0.765677   0.000000
   15        0.881456   0.000000
   16        0.923249   0.000000
 
  0.2500000E+00  0.5000000E+00  0.0000000E+00  0.1250000E+00
    1      -29.049315   1.000000
    2      -14.057236   1.000000
    3      -11.619537   1.000000
    4      -11.618893   1.000000
    5       -9.073300   1.000015
    6       -2.279482   0.000000
    7       -2.278543   0.000000
    8        0.038767   0.000000
    9        0.348246   0.000000
   10        0.368340   0.000000
   11        0.433579   0.000000
   12        0.530517   0.000000
   13        0.679768   0.000000
   14        0.750975   0.000000
   15        0.767926   0.000000
   16        0.826362   0.000000
 
  0.5000000E+00  0.5000000E+00  0.0000000E+00  0.6250000E-01
    1      -29.049296   1.000000
    2      -14.057162   1.000000
    3      -11.619469   1.000000
    4      -11.618850   1.000000
    5       -9.073252   0.999909
    6       -2.279497   0.000000
    7       -2.278492   0.000000
    8        0.075120   0.000000
    9        0.239719   0.000000
   10        0.432818   0.000000
   11        0.451543   0.000000
   12        0.467564   0.000000
   13        0.522965   0.000000
   14        0.774360   0.000000
   15        0.881631   0.000000
   16        0.921468   0.000000
