       N       E                     dE             d eps       ncg     rms          rms(c)
DAV:   1     0.699406277043E+02    0.69941E+02   -0.18545E+03   456   0.222E+02
DAV:   2    -0.517697733390E+01   -0.75118E+02   -0.72123E+02   496   0.760E+01
DAV:   3    -0.153709778174E+02   -0.10194E+02   -0.10137E+02   520   0.359E+01
DAV:   4    -0.155892835888E+02   -0.21831E+00   -0.21815E+00   360   0.566E+00
DAV:   5    -0.155908425997E+02   -0.15590E-02   -0.15589E-02   480   0.488E-01    0.691E+00
RMM:   6    -0.149519958382E+02    0.63885E+00   -0.15763E+00   320   0.582E+00    0.365E+00
RMM:   7    -0.148179597200E+02    0.13404E+00   -0.22039E-01   320   0.187E+00    0.192E+00
RMM:   8    -0.147905970351E+02    0.27363E-01   -0.13655E-01   320   0.153E+00    0.426E-01
RMM:   9    -0.147897017332E+02    0.89530E-03   -0.73202E-03   320   0.400E-01    0.130E-01
RMM:  10    -0.147902862345E+02   -0.58450E-03   -0.96188E-04   320   0.153E-01    0.347E-02
RMM:  11    -0.147918691057E+02   -0.15829E-02   -0.48789E-04   320   0.729E-02    0.276E-02
RMM:  12    -0.147924020546E+02   -0.53295E-03   -0.86165E-05   320   0.363E-02    0.923E-03
RMM:  13    -0.147936610013E+02   -0.12589E-02   -0.22895E-04   310   0.361E-02    0.692E-03
RMM:  14    -0.147937750070E+02   -0.11401E-03   -0.13928E-05   280   0.104E-02    0.370E-03
RMM:  15    -0.147941086415E+02   -0.33363E-03   -0.21747E-05   280   0.130E-02    0.226E-03
RMM:  16    -0.147941377245E+02   -0.29083E-04   -0.18267E-06   260   0.473E-03    0.122E-03
RMM:  17    -0.147941796295E+02   -0.41905E-04   -0.23809E-06   260   0.476E-03    0.387E-04
RMM:  18    -0.147941817744E+02   -0.21449E-05   -0.23076E-07   235   0.242E-03
   1 F= -.14794182E+02 E0= -.14796114E+02  d E =0.579791E-02
       N       E                     dE             d eps       ncg     rms          rms(c)
DAV:   1    -0.147912429503E+02    0.29367E-02   -0.12738E+00   432   0.642E+00    0.195E-01
RMM:   2    -0.147922633466E+02   -0.10204E-02   -0.15779E-02   320   0.762E-01    0.122E-01
RMM:   3    -0.147922006544E+02    0.62692E-04   -0.41636E-04   320   0.105E-01    0.559E-02
RMM:   4    -0.147922646098E+02   -0.63955E-04   -0.13086E-04   320   0.534E-02    0.132E-02
RMM:   5    -0.147922664866E+02   -0.18769E-05   -0.35767E-06   270   0.922E-03
   2 F= -.14792266E+02 E0= -.14794199E+02  d E =0.579791E-02
       N       E                     dE             d eps       ncg     rms          rms(c)
DAV:   1    -0.147882297591E+02    0.40349E-02   -0.51056E+00   456   0.129E+01    0.382E-01
RMM:   2    -0.147927382310E+02   -0.45085E-02   -0.63247E-02   320   0.148E+00    0.251E-01
RMM:   3    -0.147922895629E+02    0.44867E-03   -0.16979E-03   320   0.211E-01    0.123E-01
RMM:   4    -0.147924747178E+02   -0.18515E-03   -0.69152E-04   320   0.118E-01    0.300E-02
RMM:   5    -0.147924736848E+02    0.10330E-05   -0.11353E-05   280   0.167E-02
   3 F= -.14792474E+02 E0= -.14794406E+02  d E =0.579791E-02
       N       E                     dE             d eps       ncg     rms          rms(c)
DAV:   1    -0.147919834874E+02    0.49123E-03   -0.25363E+00   480   0.891E+00    0.251E-01
RMM:   2    -0.147942843556E+02   -0.23009E-02   -0.31550E-02   320   0.105E+00    0.164E-01
RMM:   3    -0.147941874430E+02    0.96913E-04   -0.59681E-04   320   0.130E-01    0.827E-02
RMM:   4    -0.147943639281E+02   -0.17649E-03   -0.26924E-04   320   0.792E-02    0.163E-02
RMM:   5    -0.147943605540E+02    0.33740E-05   -0.78773E-06   270   0.138E-02
   4 F= -.14794361E+02 E0= -.14796293E+02  d E =0.579791E-02
       N       E                     dE             d eps       ncg     rms          rms(c)
DAV:   1    -0.147885228520E+02    0.58411E-02   -0.50670E+00   440   0.126E+01    0.324E-01
RMM:   2    -0.147941551563E+02   -0.56323E-02   -0.67183E-02   320   0.143E+00    0.223E-01
RMM:   3    -0.147937913539E+02    0.36380E-03   -0.91643E-04   320   0.167E-01    0.135E-01
RMM:   4    -0.147940035396E+02   -0.21219E-03   -0.63059E-04   320   0.124E-01    0.247E-02
RMM:   5    -0.147939939384E+02    0.96012E-05   -0.79792E-06   270   0.149E-02
   5 F= -.14793994E+02 E0= -.14795927E+02  d E =0.579791E-02
       N       E                     dE             d eps       ncg     rms          rms(c)
DAV:   1    -0.147819899631E+02    0.12014E-01   -0.25590E+00   456   0.925E+00    0.347E-01
RMM:   2    -0.147830532118E+02   -0.10632E-02   -0.30290E-02   320   0.107E+00    0.202E-01
RMM:   3    -0.147828052126E+02    0.24800E-03   -0.18984E-03   320   0.207E-01    0.740E-02
RMM:   4    -0.147829362520E+02   -0.13104E-03   -0.18323E-04   320   0.609E-02    0.292E-02
RMM:   5    -0.147829619455E+02   -0.25694E-04   -0.89574E-06   275   0.136E-02    0.119E-02
RMM:   6    -0.147829806357E+02   -0.18690E-04   -0.12156E-05   276   0.147E-02    0.211E-03
RMM:   7    -0.147829905994E+02   -0.99637E-05   -0.13563E-06   270   0.496E-03
   6 F= -.14782991E+02 E0= -.14784923E+02  d E =0.579791E-02
       N       E                     dE             d eps       ncg     rms          rms(c)
DAV:   1    -0.147827310076E+02    0.24963E-03   -0.52466E+00   448   0.136E+01    0.606E-01
RMM:   2    -0.147848400281E+02   -0.21090E-02   -0.77479E-02   320   0.170E+00    0.363E-01
RMM:   3    -0.147830876130E+02    0.17524E-02   -0.75525E-03   320   0.392E-01    0.132E-01
RMM:   4    -0.147833346294E+02   -0.24702E-03   -0.57028E-04   320   0.103E-01    0.630E-02
RMM:   5    -0.147833617638E+02   -0.27134E-04   -0.28580E-05   310   0.232E-02    0.233E-02
RMM:   6    -0.147833892121E+02   -0.27448E-04   -0.39156E-05   310   0.256E-02    0.373E-03
RMM:   7    -0.147834219677E+02   -0.32756E-04   -0.34361E-06   270   0.786E-03    0.312E-03
RMM:   8    -0.147834623173E+02   -0.40350E-04   -0.21267E-06   270   0.508E-03    0.119E-03
RMM:   9    -0.147835093405E+02   -0.47023E-04   -0.32611E-06   260   0.471E-03    0.112E-03
RMM:  10    -0.147835292233E+02   -0.19883E-04   -0.13682E-06   260   0.331E-03    0.353E-04
RMM:  11    -0.147835414040E+02   -0.12181E-04   -0.47157E-07   230   0.259E-03    0.401E-04
RMM:  12    -0.147835463303E+02   -0.49263E-05   -0.21642E-07   230   0.236E-03
   7 F= -.14783546E+02 E0= -.14785479E+02  d E =0.579791E-02
       N       E                     dE             d eps       ncg     rms          rms(c)
DAV:   1    -0.147918055119E+02   -0.82641E-02   -0.15249E+00   424   0.716E+00    0.355E-01
RMM:   2    -0.147923170269E+02   -0.51152E-03   -0.22647E-02   320   0.812E-01    0.187E-01
RMM:   3    -0.147923775550E+02   -0.60528E-04   -0.76694E-04   320   0.131E-01    0.849E-02
RMM:   4    -0.147925865931E+02   -0.20904E-03   -0.16987E-04   320   0.625E-02    0.235E-02
RMM:   5    -0.147926102745E+02   -0.23681E-04   -0.47081E-06   270   0.120E-02    0.917E-03
RMM:   6    -0.147926206867E+02   -0.10412E-04   -0.86011E-06   270   0.131E-02    0.200E-03
RMM:   7    -0.147926260198E+02   -0.53331E-05   -0.84091E-07   270   0.429E-03
   8 F= -.14792626E+02 E0= -.14794559E+02  d E =0.579791E-02
       N       E                     dE             d eps       ncg     rms          rms(c)
DAV:   1    -0.147932268068E+02   -0.60612E-03   -0.17840E+00   368   0.699E+00    0.434E-01
RMM:   2    -0.147921099370E+02    0.11169E-02   -0.14955E-02   320   0.606E-01    0.246E-01
RMM:   3    -0.147921026504E+02    0.72865E-05   -0.22306E-03   320   0.216E-01    0.700E-02
RMM:   4    -0.147921367304E+02   -0.34080E-04   -0.11348E-04   320   0.478E-02    0.310E-02
RMM:   5    -0.147921764703E+02   -0.39740E-04   -0.19855E-05   306   0.192E-02    0.752E-03
RMM:   6    -0.147921943509E+02   -0.17881E-04   -0.28873E-06   270   0.801E-03    0.216E-03
RMM:   7    -0.147922137253E+02   -0.19374E-04   -0.13422E-06   270   0.422E-03    0.116E-03
RMM:   8    -0.147922240764E+02   -0.10351E-04   -0.64171E-07   260   0.293E-03    0.564E-04
RMM:   9    -0.147922376234E+02   -0.13547E-04   -0.81888E-07   250   0.288E-03    0.407E-04
RMM:  10    -0.147922431677E+02   -0.55443E-05   -0.36493E-07   240   0.246E-03
   9 F= -.14792243E+02 E0= -.14794176E+02  d E =0.579791E-02
       N       E                     dE             d eps       ncg     rms          rms(c)
DAV:   1    -0.147945265860E+02   -0.22890E-02   -0.87812E-01   376   0.479E+00    0.288E-01
RMM:   2    -0.147940612371E+02    0.46535E-03   -0.63519E-03   320   0.399E-01    0.160E-01
RMM:   3    -0.147941543653E+02   -0.93128E-04   -0.76375E-04   320   0.126E-01    0.401E-02
RMM:   4    -0.147941804117E+02   -0.26046E-04   -0.32785E-05   310   0.259E-02    0.181E-02
RMM:   5    -0.147941962569E+02   -0.15845E-04   -0.57066E-06   270   0.113E-02    0.474E-03
RMM:   6    -0.147942033305E+02   -0.70735E-05   -0.17413E-06   270   0.628E-03
  10 F= -.14794203E+02 E0= -.14796136E+02  d E =0.579791E-02
       N       E                     dE             d eps       ncg     rms          rms(c)
DAV:   1    -0.147945902436E+02   -0.39399E-03   -0.17143E+00   368   0.670E+00    0.388E-01
RMM:   2    -0.147939071683E+02    0.68308E-03   -0.99411E-03   320   0.505E-01    0.203E-01
RMM:   3    -0.147940972310E+02   -0.19006E-03   -0.54937E-04   320   0.107E-01    0.420E-02
RMM:   4    -0.147941511081E+02   -0.53877E-04   -0.18343E-05   297   0.213E-02    0.145E-02
RMM:   5    -0.147941650627E+02   -0.13955E-04   -0.71315E-06   270   0.132E-02    0.191E-03
RMM:   6    -0.147941708556E+02   -0.57930E-05   -0.90184E-07   270   0.460E-03
  11 F= -.14794171E+02 E0= -.14796103E+02  d E =0.579791E-02
       N       E                     dE             d eps       ncg     rms          rms(c)
DAV:   1    -0.147845368953E+02    0.96282E-02   -0.99370E-01   368   0.530E+00    0.374E-01
RMM:   2    -0.147833802868E+02    0.11566E-02   -0.10906E-02   320   0.530E-01    0.228E-01
RMM:   3    -0.147832530161E+02    0.12727E-03   -0.33747E-03   320   0.260E-01    0.673E-02
RMM:   4    -0.147832249756E+02    0.28041E-04   -0.10900E-04   320   0.482E-02    0.334E-02
RMM:   5    -0.147832396805E+02   -0.14705E-04   -0.63938E-05   320   0.333E-02    0.821E-03
RMM:   6    -0.147832529570E+02   -0.13277E-04   -0.17338E-06   270   0.720E-03    0.217E-03
RMM:   7    -0.147832769048E+02   -0.23948E-04   -0.11515E-06   260   0.417E-03    0.106E-03
RMM:   8    -0.147832930218E+02   -0.16117E-04   -0.44297E-07   240   0.271E-03    0.564E-04
RMM:   9    -0.147833135445E+02   -0.20523E-04   -0.13464E-06   260   0.340E-03    0.459E-04
RMM:  10    -0.147833225293E+02   -0.89849E-05   -0.33751E-07   230   0.220E-03
  12 F= -.14783323E+02 E0= -.14785255E+02  d E =0.579791E-02
       N       E                     dE             d eps       ncg     rms          rms(c)
DAV:   1    -0.147878932962E+02   -0.45798E-02   -0.21878E+00   368   0.798E+00    0.660E-01
RMM:   2    -0.147835499518E+02    0.43433E-02   -0.31074E-02   320   0.874E-01    0.391E-01
RMM:   3    -0.147828914276E+02    0.65852E-03   -0.10985E-02   320   0.469E-01    0.132E-01
RMM:   4    -0.147828433846E+02    0.48043E-04   -0.45139E-04   320   0.929E-02    0.631E-02
RMM:   5    -0.147829095076E+02   -0.66123E-04   -0.25901E-04   320   0.668E-02    0.159E-02
RMM:   6    -0.147829331687E+02   -0.23661E-04   -0.94769E-06   270   0.165E-02    0.521E-03
RMM:   7    -0.147829816421E+02   -0.48473E-04   -0.85529E-06   270   0.131E-02    0.305E-03
RMM:   8    -0.147830108567E+02   -0.29215E-04   -0.21133E-06   270   0.543E-03    0.125E-03
RMM:   9    -0.147830536371E+02   -0.42780E-04   -0.46436E-06   270   0.686E-03    0.275E-03
RMM:  10    -0.147830621296E+02   -0.84924E-05   -0.13140E-06   270   0.458E-03
  13 F= -.14783062E+02 E0= -.14784995E+02  d E =0.579791E-02
