 vasp.5.4.4.18Apr17-6-g9f103f2a35 (build May 23 2022 10:35:18) complex          
  
 executed on           IFC18_impi date 2023.06.20  15:27:45
 running on   64 total cores
 distrk:  each k-point on   64 cores,    1 groups
 distr:  one band on NCORES_PER_BAND=   8 cores,    8 groups


--------------------------------------------------------------------------------------------------------


 INCAR:
 POTCAR:    PAW_PBE O 08Apr2002                   
 POTCAR:    PAW_PBE C 08Apr2002                   
 POTCAR:    PAW_PBE O 08Apr2002                   
   VRHFIN =O: s2p4                                                              
   LEXCH  = PE                                                                  
   EATOM  =   432.3788 eV,   31.7789 Ry                                         
                                                                                
   TITEL  = PAW_PBE O 08Apr2002                                                 
   LULTRA =        F    use ultrasoft PP ?                                      
   IUNSCR =        1    unscreen: 0-lin 1-nonlin 2-no                           
   RPACOR =    1.200    partial core radius                                     
   POMASS =   16.000; ZVAL   =    6.000    mass and valenz                      
   RCORE  =    1.520    outmost cutoff radius                                   
   RWIGS  =    1.550; RWIGS  =    0.820    wigner-seitz radius (au A)           
   ENMAX  =  400.000; ENMIN  =  300.000 eV                                      
   ICORE  =        2    local potential                                         
   LCOR   =        T    correct aug charges                                     
   LPAW   =        T    paw PP                                                  
   EAUG   =  605.392                                                            
   DEXC   =    0.000                                                            
   RMAX   =    1.553    core radius for proj-oper                               
   RAUG   =    1.300    factor for augmentation sphere                          
   RDEP   =    1.550    radius for radial grids                                 
   RDEPT  =    1.329    core radius for aug-charge                              
                                                                                
   Atomic configuration                                                         
    4 entries                                                                   
     n  l   j            E        occ.                                          
     1  0  0.50      -514.6923   2.0000                                         
     2  0  0.50       -23.9615   2.0000                                         
     2  1  0.50        -9.0305   4.0000                                         
     3  2  1.50        -9.5241   0.0000                                         
   Description                                                                  
     l       E           TYP  RCUT    TYP  RCUT                                 
     0    -23.9615318     23  1.200                                             
     0     -9.5240782     23  1.200                                             
     1     -9.0304911     23  1.520                                             
     1      8.1634956     23  1.520                                             
     2     -9.5240782      7  1.500                                             
  local pseudopotential read in
  partial core-charges read in
  partial kinetic energy density read in
  kinetic energy density of atom read in
  atomic valenz-charges read in
  non local Contribution for L=           0  read in
    real space projection operators read in
  non local Contribution for L=           0  read in
    real space projection operators read in
  non local Contribution for L=           1  read in
    real space projection operators read in
  non local Contribution for L=           1  read in
    real space projection operators read in
    PAW grid and wavefunctions read in
 
   number of l-projection  operators is LMAX  =           4
   number of lm-projection operators is LMMAX =           8
 
 POTCAR:    PAW_PBE C 08Apr2002                   
   VRHFIN =C: s2p2                                                              
   LEXCH  = PE                                                                  
   EATOM  =   147.1560 eV,   10.8157 Ry                                         
                                                                                
   TITEL  = PAW_PBE C 08Apr2002                                                 
   LULTRA =        F    use ultrasoft PP ?                                      
   IUNSCR =        1    unscreen: 0-lin 1-nonlin 2-no                           
   RPACOR =    1.200    partial core radius                                     
   POMASS =   12.011; ZVAL   =    4.000    mass and valenz                      
   RCORE  =    1.500    outmost cutoff radius                                   
   RWIGS  =    1.630; RWIGS  =    0.863    wigner-seitz radius (au A)           
   ENMAX  =  400.000; ENMIN  =  300.000 eV                                      
   ICORE  =        2    local potential                                         
   LCOR   =        T    correct aug charges                                     
   LPAW   =        T    paw PP                                                  
   EAUG   =  644.873                                                            
   DEXC   =    0.000                                                            
   RMAX   =    1.529    core radius for proj-oper                               
   RAUG   =    1.300    factor for augmentation sphere                          
   RDEP   =    1.501    radius for radial grids                                 
   RDEPT  =    1.300    core radius for aug-charge                              
                                                                                
   Atomic configuration                                                         
    4 entries                                                                   
     n  l   j            E        occ.                                          
     1  0  0.50      -273.3789   2.0000                                         
     2  0  0.50       -13.7508   2.0000                                         
     2  1  0.50        -5.2854   2.0000                                         
     3  2  1.50        -5.4423   0.0000                                         
   Description                                                                  
     l       E           TYP  RCUT    TYP  RCUT                                 
     0    -13.7508458     23  1.200                                             
     0     -8.2022199     23  1.200                                             
     1     -5.2854383     23  1.500                                             
     1     34.0145650     23  1.500                                             
     2     -5.4423304      7  1.500                                             
  local pseudopotential read in
  partial core-charges read in
  partial kinetic energy density read in
  atomic valenz-charges read in
  non local Contribution for L=           0  read in
    real space projection operators read in
  non local Contribution for L=           0  read in
    real space projection operators read in
  non local Contribution for L=           1  read in
    real space projection operators read in
  non local Contribution for L=           1  read in
    real space projection operators read in
    PAW grid and wavefunctions read in
 
   number of l-projection  operators is LMAX  =           4
   number of lm-projection operators is LMMAX =           8
 

 ----------------------------------------------------------------------------- 
|                                                                             |
|  ADVICE TO THIS USER RUNNING 'VASP/VAMP'   (HEAR YOUR MASTER'S VOICE ...):  |
|                                                                             |
|      You have a (more or less) 'small supercell' and for smaller cells      |
|      it is recommended  to use the reciprocal-space projection scheme!      |
|      The real space optimization is not  efficient for small cells and it   |
|      is also less accurate ...                                              |
|      Therefore set LREAL=.FALSE. in the  INCAR file                         |
|                                                                             |
 ----------------------------------------------------------------------------- 

 Optimization of the real space projectors (new method)

 maximal supplied QI-value         = 24.76
 optimisation between [QCUT,QGAM] = [ 10.15, 20.30] = [ 28.85,115.39] Ry 
 Optimized for a Real-space Cutoff    1.19 Angstroem

   l    n(q)    QCUT    max X(q) W(low)/X(q) W(high)/X(q)  e(spline) 
   0      7    10.150    20.381    0.86E-03    0.53E-03    0.15E-06
   0      7    10.150    15.268    0.92E-03    0.58E-03    0.15E-06
   1      7    10.150     5.964    0.13E-02    0.15E-02    0.11E-06
   1      7    10.150     5.382    0.10E-02    0.13E-02    0.10E-06
 Optimization of the real space projectors (new method)

 maximal supplied QI-value         = 25.13
 optimisation between [QCUT,QGAM] = [ 10.05, 20.36] = [ 28.30,116.06] Ry 
 Optimized for a Real-space Cutoff    1.12 Angstroem

   l    n(q)    QCUT    max X(q) W(low)/X(q) W(high)/X(q)  e(spline) 
   0      7    10.053   115.676    0.98E-03    0.17E-02    0.83E-07
   0      7    10.053    87.132    0.97E-03    0.17E-02    0.82E-07
   1      6    10.053     4.429    0.15E-02    0.82E-03    0.11E-06
   1      6    10.053     2.733    0.11E-02    0.55E-03    0.12E-06
  PAW_PBE O 08Apr2002                   :
 energy of atom  1       EATOM= -432.3788
 kinetic energy error for atom=    0.1156 (will be added to EATOM!!)
  PAW_PBE C 08Apr2002                   :
 energy of atom  2       EATOM= -147.1560
 kinetic energy error for atom=    0.0288 (will be added to EATOM!!)
 
 
 POSCAR:  O  C                                   
  positions in direct lattice
  velocities in cartesian coordinates
 exchange correlation table for  LEXCH =        8
   RHO(1)=    0.500       N(1)  =     2000
   RHO(2)=  100.500       N(2)  =     4000

 VTST: version 3.2, (02/03/18)

 CHAIN: initializing optimizer
 
 OPT: Using VASP Dynamics algorithm
 CHAIN: Read ICHAIN            0
 
 POSCAR:  O  C                                   
  positions in direct lattice
  velocities in cartesian coordinates
 


--------------------------------------------------------------------------------------------------------


 ion  position               nearest neighbor table
   1  0.267  0.619  0.209-   2 1.14
   2  0.229  0.618  0.175-   1 1.14
 

IMPORTANT INFORMATION: All symmetrisations will be switched off!
NOSYMM: (Re-)initialisation of all symmetry stuff for point group C_1.

 
 
 KPOINTS: kpoints                                 

Automatic generation of k-mesh.
Space group operators:
 irot       det(A)        alpha          n_x          n_y          n_z        tau_x        tau_y        tau_z
    1     1.000000     0.000001     1.000000     0.000000     0.000000     0.000000     0.000000     0.000000
 
 Subroutine IBZKPT returns following result:
 ===========================================
 
 Found     10 irreducible k-points:
 
 Following reciprocal coordinates:
            Coordinates               Weight
  0.000000  0.000000  0.000000      1.000000
  0.250000 -0.000000  0.000000      2.000000
  0.500000 -0.000000  0.000000      1.000000
  0.000000  0.250000  0.000000      2.000000
  0.250000  0.250000  0.000000      2.000000
  0.500000  0.250000  0.000000      2.000000
 -0.250000  0.250000  0.000000      2.000000
  0.000000  0.500000  0.000000      1.000000
  0.250000  0.500000  0.000000      2.000000
  0.500000  0.500000  0.000000      1.000000
 
 Following cartesian coordinates:
            Coordinates               Weight
  0.000000  0.000000  0.000000      1.000000
  0.022293 -0.012871  0.000000      2.000000
  0.044586 -0.025742  0.000000      1.000000
  0.000000  0.025742  0.000000      2.000000
  0.022293  0.012871  0.000000      2.000000
  0.044586  0.000000  0.000000      2.000000
 -0.022293  0.038612  0.000000      2.000000
  0.000000  0.051483  0.000000      1.000000
  0.022293  0.038612  0.000000      2.000000
  0.044586  0.025742  0.000000      1.000000
 
 
 Subroutine IBZKPT_HF returns following result:
 ==============================================
 
 Found     16 k-points in 1st BZ
 the following     16 k-points will be used (e.g. in the exchange kernel)
 Following reciprocal coordinates:   # in IRBZ
  0.000000  0.000000  0.000000    0.06250000   1 t-inv F
  0.250000 -0.000000  0.000000    0.06250000   2 t-inv F
  0.500000 -0.000000  0.000000    0.06250000   3 t-inv F
  0.000000  0.250000  0.000000    0.06250000   4 t-inv F
  0.250000  0.250000  0.000000    0.06250000   5 t-inv F
  0.500000  0.250000  0.000000    0.06250000   6 t-inv F
 -0.250000  0.250000  0.000000    0.06250000   7 t-inv F
  0.000000  0.500000  0.000000    0.06250000   8 t-inv F
  0.250000  0.500000  0.000000    0.06250000   9 t-inv F
  0.500000  0.500000  0.000000    0.06250000  10 t-inv F
 -0.250000  0.000000  0.000000    0.06250000   2 t-inv T
  0.000000 -0.250000  0.000000    0.06250000   4 t-inv T
 -0.250000 -0.250000  0.000000    0.06250000   5 t-inv T
 -0.500000 -0.250000  0.000000    0.06250000   6 t-inv T
  0.250000 -0.250000  0.000000    0.06250000   7 t-inv T
 -0.250000 -0.500000  0.000000    0.06250000   9 t-inv T


--------------------------------------------------------------------------------------------------------




 Dimension of arrays:
   k-points           NKPTS =     10   k-points in BZ     NKDIM =     10   number of bands    NBANDS=     16
   number of dos      NEDOS =    301   number of ions     NIONS =      2
   non local maximal  LDIM  =      4   non local SUM 2l+1 LMDIM =      8
   total plane-waves  NPLWV = 501760
   max r-space proj   IRMAX =   1086   max aug-charges    IRDMAX=   1378
   dimension x,y,z NGX =    56 NGY =   56 NGZ =  160
   dimension x,y,z NGXF=    96 NGYF=   96 NGZF=  270
   support grid    NGXF=    96 NGYF=   96 NGZF=  270
   ions per type =               1   1
   NGX,Y,Z   is equivalent  to a cutoff of   8.30,  8.30,  8.46 a.u.
   NGXF,Y,Z  is equivalent  to a cutoff of  14.23, 14.23, 14.27 a.u.

 SYSTEM =  Pt                                      
 POSCAR =   O  C                                   

 Startparameter for this run:
   NWRITE =      2    write-flag & timer
   PREC   = med       normal or accurate (medium, high low for compatibility)
   ISTART =      0    job   : 0-new  1-cont  2-samecut
   ICHARG =      2    charge: 1-file 2-atom 10-const
   ISPIN  =      1    spin polarized calculation?
   LNONCOLLINEAR =      F non collinear calculations
   LSORBIT =      F    spin-orbit coupling
   INIWAV =      1    electr: 0-lowe 1-rand  2-diag
   LASPH  =      F    aspherical Exc in radial PAW
   METAGGA=      F    non-selfconsistent MetaGGA calc.

 Electronic Relaxation 1
   ENCUT  =  400.0 eV  29.40 Ry    5.42 a.u.  18.29 18.29 51.28*2*pi/ulx,y,z
   ENINI  =  400.0     initial cutoff
   ENAUG  =  644.9 eV  augmentation charge cutoff
   NELM   =    100;   NELMIN=  2; NELMDL= -5     # of ELM steps 
   EDIFF  = 0.1E-04   stopping-criterion for ELM
   LREAL  =      T    real-space projection
   NLSPLINE    = F    spline interpolate recip. space projectors
   LCOMPAT=      F    compatible to vasp.4.4
   GGA_COMPAT  = T    GGA compatible to vasp.4.4-vasp.4.6
   LMAXPAW     = -100 max onsite density
   LMAXMIX     =    2 max onsite mixed and CHGCAR
   VOSKOWN=      0    Vosko Wilk Nusair interpolation
   ROPT   =   -0.00200  -0.00200
 Ionic relaxation
   EDIFFG = 0.1E-03   stopping-criterion for IOM
   NSW    =     61    number of steps for IOM
   NBLOCK =      1;   KBLOCK =     61    inner block; outer block 
   IBRION =      5    ionic relax: 0-MD 1-quasi-New 2-CG
   NFREE  =      2    steps in history (QN), initial steepest desc. (CG)
   ISIF   =      1    stress and relaxation
   IWAVPR =     11    prediction:  0-non 1-charg 2-wave 3-comb
   ISYM   =      0    0-nonsym 1-usesym 2-fastsym
   LCORR  =      T    Harris-Foulkes like correction to forces

   POTIM  = 0.0150    time-step for ionic-motion
   TEIN   =    0.0    initial temperature
   TEBEG  =    0.0;   TEEND  =   0.0 temperature during run
   SMASS  =  -3.00    Nose mass-parameter (am)
   estimated Nose-frequenzy (Omega)   =  0.10E-29 period in steps =****** mass=  -0.287E-26a.u.
   SCALEE = 1.0000    scale energy and forces
   NPACO  =    256;   APACO  = 16.0  distance and # of slots for P.C.
   PSTRESS=    0.0 pullay stress

  Mass of Ions in am
   POMASS =  16.00 12.01
  Ionic Valenz
   ZVAL   =   6.00  4.00
  Atomic Wigner-Seitz radii
   RWIGS  =  -1.00 -1.00
  virtual crystal weights 
   VCA    =   1.00  1.00
   NELECT =      10.0000    total number of electrons
   NUPDOWN=      -1.0000    fix difference up-down

 DOS related values:
   EMIN   =  10.00;   EMAX   =-10.00  energy-range for DOS
   EFERMI =   0.00
   ISMEAR =     1;   SIGMA  =   0.10  broadening in eV -4-tet -1-fermi 0-gaus

 Electronic relaxation 2 (details)
   IALGO  =     68    algorithm
   LDIAG  =      T    sub-space diagonalisation (order eigenvalues)
   LSUBROT=      F    optimize rotation matrix (better conditioning)
   TURBO    =      0    0=normal 1=particle mesh
   IRESTART =      0    0=no restart 2=restart with 2 vectors
   NREBOOT  =      0    no. of reboots
   NMIN     =      0    reboot dimension
   EREF     =   0.00    reference energy to select bands
   IMIX   =      4    mixing-type and parameters
     AMIX     =   0.40;   BMIX     =  1.00
     AMIX_MAG =   1.60;   BMIX_MAG =  1.00
     AMIN     =   0.10
     WC   =   100.;   INIMIX=   1;  MIXPRE=   1;  MAXMIX= -45

 Intra band minimization:
   WEIMIN = 0.0010     energy-eigenvalue tresh-hold
   EBREAK =  0.16E-06  absolut break condition
   DEPER  =   0.30     relativ break condition  

   TIME   =   0.40     timestep for ELM

  volume/ion in A,a.u.               =    1712.42     11555.96
  Fermi-wavevector in a.u.,A,eV,Ry     =   0.233989  0.442175  0.744929  0.054751
  Thomas-Fermi vector in A             =   1.031458
 
 Write flags
   LWAVE        =      F    write WAVECAR
   LDOWNSAMPLE  =      F    k-point downsampling of WAVECAR
   LCHARG       =      F    write CHGCAR
   LVTOT        =      F    write LOCPOT, total local potential
   LVHAR        =      F    write LOCPOT, Hartree potential only
   LELF         =      F    write electronic localiz. function (ELF)
   LORBIT       =      0    0 simple, 1 ext, 2 COOP (PROOUT), +10 PAW based schemes


 Dipole corrections
   LMONO  =      F    monopole corrections only (constant potential shift)
   LDIPOL =      F    correct potential (dipole corrections)
   IDIPOL =      0    1-x, 2-y, 3-z, 4-all directions 
   EPSILON=  1.0000000 bulk dielectric constant

 Exchange correlation treatment:
   GGA     =    --    GGA type
   LEXCH   =     8    internal setting for exchange type
   VOSKOWN=      0    Vosko Wilk Nusair interpolation
   LHFCALC =     F    Hartree Fock is set to
   LHFONE  =     F    Hartree Fock one center treatment
   AEXX    =    0.0000 exact exchange contribution

 Linear response parameters
   LEPSILON=     F    determine dielectric tensor
   LRPA    =     F    only Hartree local field effects (RPA)
   LNABLA  =     F    use nabla operator in PAW spheres
   LVEL    =     F    velocity operator in full k-point grid
   LINTERFAST=   F  fast interpolation
   KINTER  =     0    interpolate to denser k-point grid
   CSHIFT  =0.1000    complex shift for real part using Kramers Kronig
   OMEGAMAX=  -1.0    maximum frequency
   DEG_THRESHOLD= 0.2000000E-02 threshold for treating states as degnerate
   RTIME   =   -0.100 relaxation time in fs
  (WPLASMAI=    0.000 imaginary part of plasma frequency in eV, 0.658/RTIME)
   DFIELD  = 0.0000000 0.0000000 0.0000000 field for delta impulse in time
 
 Orbital magnetization related:
   ORBITALMAG=     F  switch on orbital magnetization
   LCHIMAG   =     F  perturbation theory with respect to B field
   DQ        =  0.001000  dq finite difference perturbation B field
   LLRAUG    =     F  two centre corrections for induced B field



--------------------------------------------------------------------------------------------------------


 finite differences
 charge density and potential will be updated during run
 non-spin polarized calculation
 RMM-DIIS sequential band-by-band and
  variant of blocked Davidson during initial phase
 perform sub-space diagonalisation
    before iterative eigenvector-optimisation
 modified Broyden-mixing scheme, WC =      100.0
 initial mixing is a Kerker type mixing with AMIX =  0.4000 and BMIX =      1.0000
 Hartree-type preconditioning will be used
 using additional bands           11
 real space projection scheme for non local part
 use partial core corrections
 calculate Harris-corrections to forces 
   (improved forces if not selfconsistent)
 use gradient corrections 
 use of overlap-Matrix (Vanderbilt PP)
 Methfessel and Paxton  Order N= 1 SIGMA  =   0.10


--------------------------------------------------------------------------------------------------------


  energy-cutoff  :      400.00
  volume of cell :     3424.83
      direct lattice vectors                 reciprocal lattice vectors
    11.214359184  0.000000000  0.000000000     0.089171390 -0.051483119  0.000000000
     5.607178664  9.711919634  0.000000000     0.000000000  0.102966256  0.000000000
     0.000000000  0.000000000 31.445607950     0.000000000  0.000000000  0.031800943

  length of vectors
    11.214359184 11.214358455 31.445607950     0.102966249  0.102966256  0.031800943


 
 k-points in units of 2pi/SCALE and weight: kpoints                                 
   0.00000000  0.00000000  0.00000000       0.062
   0.02229285 -0.01287078  0.00000000       0.125
   0.04458570 -0.02574156  0.00000000       0.062
   0.00000000  0.02574156  0.00000000       0.125
   0.02229285  0.01287078  0.00000000       0.125
   0.04458570  0.00000000  0.00000000       0.125
  -0.02229285  0.03861234  0.00000000       0.125
   0.00000000  0.05148313  0.00000000       0.062
   0.02229285  0.03861235  0.00000000       0.125
   0.04458570  0.02574157  0.00000000       0.062
 
 k-points in reciprocal lattice and weights: kpoints                                 
   0.00000000  0.00000000  0.00000000       0.062
   0.25000000 -0.00000000  0.00000000       0.125
   0.50000000 -0.00000000  0.00000000       0.062
   0.00000000  0.25000000  0.00000000       0.125
   0.25000000  0.25000000  0.00000000       0.125
   0.50000000  0.25000000  0.00000000       0.125
  -0.25000000  0.25000000  0.00000000       0.125
   0.00000000  0.50000000  0.00000000       0.062
   0.25000000  0.50000000  0.00000000       0.125
   0.50000000  0.50000000  0.00000000       0.062
 
 position of ions in fractional coordinates (direct lattice) 
   0.26720689  0.61862128  0.20910631
   0.22934645  0.61786629  0.17538255
 
 position of ions in cartesian coordinates  (Angst):
   6.46527407  6.00800013  6.57547506
   6.03646009  6.00066772  5.51501089
 


--------------------------------------------------------------------------------------------------------


 k-point  1 :   0.0000 0.0000 0.0000  plane waves:   62299
 k-point  2 :   0.2500-0.0000 0.0000  plane waves:   62176
 k-point  3 :   0.5000-0.0000 0.0000  plane waves:   62174
 k-point  4 :   0.0000 0.2500 0.0000  plane waves:   62176
 k-point  5 :   0.2500 0.2500 0.0000  plane waves:   62176
 k-point  6 :   0.5000 0.2500 0.0000  plane waves:   62212
 k-point  7 :  -0.2500 0.2500 0.0000  plane waves:   62212
 k-point  8 :   0.0000 0.5000 0.0000  plane waves:   62174
 k-point  9 :   0.2500 0.5000 0.0000  plane waves:   62212
 k-point 10 :   0.5000 0.5000 0.0000  plane waves:   62174

 maximum and minimum number of plane-waves per node :      7835     7684

 maximum number of plane-waves:     62299
 maximum index in each direction: 
   IXMAX=   18   IYMAX=   18   IZMAX=   51
   IXMIN=  -18   IYMIN=  -18   IZMIN=  -51


 real space projection operators:
  total allocation   :        115.38 KBytes
  max/ min on nodes  :         15.88         12.75


 parallel 3D FFT for wavefunctions:
    minimum data exchange during FFTs selected (reduces bandwidth)
 parallel 3D FFT for charge:
    minimum data exchange during FFTs selected (reduces bandwidth)


 total amount of memory used by VASP MPI-rank0    41567. kBytes
=======================================================================

   base      :      30000. kBytes
   nonlr-proj:         51. kBytes
   fftplans  :       3597. kBytes
   grid      :       5433. kBytes
   one-center:          3. kBytes
   wavefun   :       2483. kBytes
 
     INWAV:  cpu time    0.0000: real time    0.0001
 Broyden mixing: mesh for mixing (old mesh)
   NGX = 37   NGY = 37   NGZ =103
  (NGX  = 96   NGY  = 96   NGZ  =270)
  gives a total of 141007 points

 initial charge density was supplied:
 charge density of overlapping atoms calculated
 number of electron      10.0000000 magnetization 
 keeping initial charge density in first step


--------------------------------------------------------------------------------------------------------


 Maximum index for non-local projection operator          113
 Maximum index for augmentation-charges            0 (set IRDMAX)


--------------------------------------------------------------------------------------------------------


 First call to EWALD:  gamma=   0.118
 Maximum number of real-space cells 4x 4x 2
 Maximum number of reciprocal cells 2x 2x 5

    FEWALD:  cpu time    0.0015: real time    0.0016


--------------------------------------- Iteration      1(   1)  ---------------------------------------


    POTLOK:  cpu time    0.0251: real time    0.0284
    SETDIJ:  cpu time    0.0012: real time    0.0015
     EDDAV:  cpu time    0.3697: real time    0.3724
       DOS:  cpu time    0.0005: real time    0.0006
    --------------------------------------------
      LOOP:  cpu time    0.3965: real time    0.4029

 eigenvalue-minimisations  :   456
 total energy-change (2. order) : 0.6994063E+02  (-0.1854519E+03)
 number of electron      10.0000000 magnetization 
 augmentation part       10.0000000 magnetization 

 Free energy of the ion-electron system (eV)
  ---------------------------------------------------
  alpha Z        PSCENC =         0.12758503
  Ewald energy   TEWEN  =       248.61493590
  -Hartree energ DENC   =      -708.67838392
  -exchange      EXHF   =         0.00000000
  -V(xc)+E(xc)   XCENC  =        39.19718296
  PAW double counting   =       455.07152327     -457.43959975
  entropy T*S    EENTRO =        -0.00312587
  eigenvalues    EBANDS =       -86.33990983
  atomic energy  EATOM  =       579.39041991
  Solvation  Ediel_sol  =         0.00000000
  ---------------------------------------------------
  free energy    TOTEN  =        69.94062770 eV

  energy without entropy =       69.94375357  energy(sigma->0) =       69.94166966


--------------------------------------------------------------------------------------------------------




--------------------------------------- Iteration      1(   2)  ---------------------------------------


     EDDAV:  cpu time    0.3775: real time    0.3786
       DOS:  cpu time    0.0002: real time    0.0002
    --------------------------------------------
      LOOP:  cpu time    0.3777: real time    0.3788

 eigenvalue-minimisations  :   496
 total energy-change (2. order) :-0.7511761E+02  (-0.7212318E+02)
 number of electron      10.0000000 magnetization 
 augmentation part       10.0000000 magnetization 

 Free energy of the ion-electron system (eV)
  ---------------------------------------------------
  alpha Z        PSCENC =         0.12758503
  Ewald energy   TEWEN  =       248.61493590
  -Hartree energ DENC   =      -708.67838392
  -exchange      EXHF   =         0.00000000
  -V(xc)+E(xc)   XCENC  =        39.19718296
  PAW double counting   =       455.07152327     -457.43959975
  entropy T*S    EENTRO =         0.00135973
  eigenvalues    EBANDS =      -161.46200046
  atomic energy  EATOM  =       579.39041991
  Solvation  Ediel_sol  =         0.00000000
  ---------------------------------------------------
  free energy    TOTEN  =        -5.17697733 eV

  energy without entropy =       -5.17833707  energy(sigma->0) =       -5.17743058


--------------------------------------------------------------------------------------------------------




--------------------------------------- Iteration      1(   3)  ---------------------------------------


     EDDAV:  cpu time    0.3891: real time    0.3925
       DOS:  cpu time    0.0002: real time    0.0002
    --------------------------------------------
      LOOP:  cpu time    0.3892: real time    0.3927

 eigenvalue-minimisations  :   520
 total energy-change (2. order) :-0.1019400E+02  (-0.1013671E+02)
 number of electron      10.0000000 magnetization 
 augmentation part       10.0000000 magnetization 

 Free energy of the ion-electron system (eV)
  ---------------------------------------------------
  alpha Z        PSCENC =         0.12758503
  Ewald energy   TEWEN  =       248.61493590
  -Hartree energ DENC   =      -708.67838392
  -exchange      EXHF   =         0.00000000
  -V(xc)+E(xc)   XCENC  =        39.19718296
  PAW double counting   =       455.07152327     -457.43959975
  entropy T*S    EENTRO =         0.00587135
  eigenvalues    EBANDS =      -171.66051257
  atomic energy  EATOM  =       579.39041991
  Solvation  Ediel_sol  =         0.00000000
  ---------------------------------------------------
  free energy    TOTEN  =       -15.37097782 eV

  energy without entropy =      -15.37684917  energy(sigma->0) =      -15.37293493


--------------------------------------------------------------------------------------------------------




--------------------------------------- Iteration      1(   4)  ---------------------------------------


     EDDAV:  cpu time    0.2891: real time    0.2901
       DOS:  cpu time    0.0002: real time    0.0002
    --------------------------------------------
      LOOP:  cpu time    0.2892: real time    0.2903

 eigenvalue-minimisations  :   360
 total energy-change (2. order) :-0.2183058E+00  (-0.2181516E+00)
 number of electron      10.0000000 magnetization 
 augmentation part       10.0000000 magnetization 

 Free energy of the ion-electron system (eV)
  ---------------------------------------------------
  alpha Z        PSCENC =         0.12758503
  Ewald energy   TEWEN  =       248.61493590
  -Hartree energ DENC   =      -708.67838392
  -exchange      EXHF   =         0.00000000
  -V(xc)+E(xc)   XCENC  =        39.19718296
  PAW double counting   =       455.07152327     -457.43959975
  entropy T*S    EENTRO =         0.00579800
  eigenvalues    EBANDS =      -171.87874499
  atomic energy  EATOM  =       579.39041991
  Solvation  Ediel_sol  =         0.00000000
  ---------------------------------------------------
  free energy    TOTEN  =       -15.58928359 eV

  energy without entropy =      -15.59508159  energy(sigma->0) =      -15.59121626


--------------------------------------------------------------------------------------------------------




--------------------------------------- Iteration      1(   5)  ---------------------------------------


     EDDAV:  cpu time    0.3574: real time    0.3587
       DOS:  cpu time    0.0002: real time    0.0002
    CHARGE:  cpu time    0.0111: real time    0.0113
    MIXING:  cpu time    0.0025: real time    0.0025
    --------------------------------------------
      LOOP:  cpu time    0.3712: real time    0.3726

 eigenvalue-minimisations  :   480
 total energy-change (2. order) :-0.1559011E-02  (-0.1558913E-02)
 number of electron       9.9999925 magnetization 
 augmentation part        0.7216316 magnetization 

 Broyden mixing:
  rms(total) = 0.69096E+00    rms(broyden)= 0.68991E+00
  rms(prec ) = 0.70417E+00
  weight for this iteration     100.00

 Free energy of the ion-electron system (eV)
  ---------------------------------------------------
  alpha Z        PSCENC =         0.12758503
  Ewald energy   TEWEN  =       248.61493590
  -Hartree energ DENC   =      -708.67838392
  -exchange      EXHF   =         0.00000000
  -V(xc)+E(xc)   XCENC  =        39.19718296
  PAW double counting   =       455.07152327     -457.43959975
  entropy T*S    EENTRO =         0.00579791
  eigenvalues    EBANDS =      -171.88030390
  atomic energy  EATOM  =       579.39041991
  Solvation  Ediel_sol  =         0.00000000
  ---------------------------------------------------
  free energy    TOTEN  =       -15.59084260 eV

  energy without entropy =      -15.59664051  energy(sigma->0) =      -15.59277524


--------------------------------------------------------------------------------------------------------




--------------------------------------- Iteration      1(   6)  ---------------------------------------


    POTLOK:  cpu time    0.0200: real time    0.0203
    SETDIJ:  cpu time    0.0023: real time    0.0023
    EDDIAG:  cpu time    0.0691: real time    0.0696
  RMM-DIIS:  cpu time    0.2141: real time    0.2148
    ORTHCH:  cpu time    0.0047: real time    0.0047
       DOS:  cpu time    0.0002: real time    0.0002
    CHARGE:  cpu time    0.0106: real time    0.0106
    MIXING:  cpu time    0.0013: real time    0.0014
    --------------------------------------------
      LOOP:  cpu time    0.3222: real time    0.3239

 eigenvalue-minimisations  :   320
 total energy-change (2. order) : 0.6388468E+00  (-0.1576318E+00)
 number of electron       9.9999930 magnetization 
 augmentation part        0.6449895 magnetization 

 Broyden mixing:
  rms(total) = 0.36460E+00    rms(broyden)= 0.36430E+00
  rms(prec ) = 0.37009E+00
  weight for this iteration     100.00

 eigenvalues of (default mixing * dielectric matrix)
  average eigenvalue GAMMA=   1.1115
  1.1115

 Free energy of the ion-electron system (eV)
  ---------------------------------------------------
  alpha Z        PSCENC =         0.12758503
  Ewald energy   TEWEN  =       248.61493590
  -Hartree energ DENC   =      -722.52870519
  -exchange      EXHF   =         0.00000000
  -V(xc)+E(xc)   XCENC  =        40.00673402
  PAW double counting   =       601.39025674     -603.91615380
  entropy T*S    EENTRO =         0.00579791
  eigenvalues    EBANDS =      -158.04286634
  atomic energy  EATOM  =       579.39041991
  Solvation  Ediel_sol  =         0.00000000
  ---------------------------------------------------
  free energy    TOTEN  =       -14.95199584 eV

  energy without entropy =      -14.95779375  energy(sigma->0) =      -14.95392847


--------------------------------------------------------------------------------------------------------




--------------------------------------- Iteration      1(   7)  ---------------------------------------


    POTLOK:  cpu time    0.0191: real time    0.0194
    SETDIJ:  cpu time    0.0012: real time    0.0012
    EDDIAG:  cpu time    0.0651: real time    0.0653
  RMM-DIIS:  cpu time    0.2092: real time    0.2097
    ORTHCH:  cpu time    0.0047: real time    0.0047
       DOS:  cpu time    0.0002: real time    0.0002
    CHARGE:  cpu time    0.0103: real time    0.0103
    MIXING:  cpu time    0.0012: real time    0.0013
    --------------------------------------------
      LOOP:  cpu time    0.3109: real time    0.3120

 eigenvalue-minimisations  :   320
 total energy-change (2. order) : 0.1340361E+00  (-0.2203878E-01)
 number of electron       9.9999929 magnetization 
 augmentation part        0.6640531 magnetization 

 Broyden mixing:
  rms(total) = 0.19162E+00    rms(broyden)= 0.19159E+00
  rms(prec ) = 0.19408E+00
  weight for this iteration     100.00

 eigenvalues of (default mixing * dielectric matrix)
  average eigenvalue GAMMA=   1.5081
  0.7766  2.2397

 Free energy of the ion-electron system (eV)
  ---------------------------------------------------
  alpha Z        PSCENC =         0.12758503
  Ewald energy   TEWEN  =       248.61493590
  -Hartree energ DENC   =      -724.74235283
  -exchange      EXHF   =         0.00000000
  -V(xc)+E(xc)   XCENC  =        40.15495968
  PAW double counting   =       705.66591872     -708.15706456
  entropy T*S    EENTRO =         0.00579791
  eigenvalues    EBANDS =      -155.87815947
  atomic energy  EATOM  =       579.39041991
  Solvation  Ediel_sol  =         0.00000000
  ---------------------------------------------------
  free energy    TOTEN  =       -14.81795972 eV

  energy without entropy =      -14.82375763  energy(sigma->0) =      -14.81989236


--------------------------------------------------------------------------------------------------------




--------------------------------------- Iteration      1(   8)  ---------------------------------------


    POTLOK:  cpu time    0.0190: real time    0.0193
    SETDIJ:  cpu time    0.0011: real time    0.0011
    EDDIAG:  cpu time    0.0652: real time    0.0654
  RMM-DIIS:  cpu time    0.2091: real time    0.2096
    ORTHCH:  cpu time    0.0046: real time    0.0046
       DOS:  cpu time    0.0002: real time    0.0002
    CHARGE:  cpu time    0.0103: real time    0.0103
    MIXING:  cpu time    0.0012: real time    0.0012
    --------------------------------------------
      LOOP:  cpu time    0.3106: real time    0.3116

 eigenvalue-minimisations  :   320
 total energy-change (2. order) : 0.2736268E-01  (-0.1365482E-01)
 number of electron       9.9999930 magnetization 
 augmentation part        0.6530883 magnetization 

 Broyden mixing:
  rms(total) = 0.42596E-01    rms(broyden)= 0.42564E-01
  rms(prec ) = 0.43549E-01
  weight for this iteration     100.00

 eigenvalues of (default mixing * dielectric matrix)
  average eigenvalue GAMMA=   1.6412
  2.3595  1.7951  0.7691

 Free energy of the ion-electron system (eV)
  ---------------------------------------------------
  alpha Z        PSCENC =         0.12758503
  Ewald energy   TEWEN  =       248.61493590
  -Hartree energ DENC   =      -729.40729992
  -exchange      EXHF   =         0.00000000
  -V(xc)+E(xc)   XCENC  =        40.43921527
  PAW double counting   =       843.28509063     -845.77293343
  entropy T*S    EENTRO =         0.00579791
  eigenvalues    EBANDS =      -151.47340833
  atomic energy  EATOM  =       579.39041991
  Solvation  Ediel_sol  =         0.00000000
  ---------------------------------------------------
  free energy    TOTEN  =       -14.79059704 eV

  energy without entropy =      -14.79639494  energy(sigma->0) =      -14.79252967


--------------------------------------------------------------------------------------------------------




--------------------------------------- Iteration      1(   9)  ---------------------------------------


    POTLOK:  cpu time    0.0189: real time    0.0192
    SETDIJ:  cpu time    0.0010: real time    0.0010
    EDDIAG:  cpu time    0.0654: real time    0.0656
  RMM-DIIS:  cpu time    0.2097: real time    0.2103
    ORTHCH:  cpu time    0.0045: real time    0.0045
       DOS:  cpu time    0.0002: real time    0.0002
    CHARGE:  cpu time    0.0103: real time    0.0104
    MIXING:  cpu time    0.0011: real time    0.0011
    --------------------------------------------
      LOOP:  cpu time    0.3112: real time    0.3123

 eigenvalue-minimisations  :   320
 total energy-change (2. order) : 0.8953020E-03  (-0.7320199E-03)
 number of electron       9.9999930 magnetization 
 augmentation part        0.6507507 magnetization 

 Broyden mixing:
  rms(total) = 0.13029E-01    rms(broyden)= 0.13010E-01
  rms(prec ) = 0.13720E-01
  weight for this iteration     100.00

 eigenvalues of (default mixing * dielectric matrix)
  average eigenvalue GAMMA=   1.5107
  0.8010  0.9859  2.3233  1.9328

 Free energy of the ion-electron system (eV)
  ---------------------------------------------------
  alpha Z        PSCENC =         0.12758503
  Ewald energy   TEWEN  =       248.61493590
  -Hartree energ DENC   =      -728.91356448
  -exchange      EXHF   =         0.00000000
  -V(xc)+E(xc)   XCENC  =        40.40374386
  PAW double counting   =       863.99370648     -866.45208397
  entropy T*S    EENTRO =         0.00579791
  eigenvalues    EBANDS =      -151.96024237
  atomic energy  EATOM  =       579.39041991
  Solvation  Ediel_sol  =         0.00000000
  ---------------------------------------------------
  free energy    TOTEN  =       -14.78970173 eV

  energy without entropy =      -14.79549964  energy(sigma->0) =      -14.79163437


--------------------------------------------------------------------------------------------------------




--------------------------------------- Iteration      1(  10)  ---------------------------------------


    POTLOK:  cpu time    0.0183: real time    0.0186
    SETDIJ:  cpu time    0.0010: real time    0.0010
    EDDIAG:  cpu time    0.0645: real time    0.0647
  RMM-DIIS:  cpu time    0.2130: real time    0.2135
    ORTHCH:  cpu time    0.0049: real time    0.0049
       DOS:  cpu time    0.0002: real time    0.0002
    CHARGE:  cpu time    0.0108: real time    0.0108
    MIXING:  cpu time    0.0013: real time    0.0013
    --------------------------------------------
      LOOP:  cpu time    0.3140: real time    0.3150

 eigenvalue-minimisations  :   320
 total energy-change (2. order) :-0.5845014E-03  (-0.9618806E-04)
 number of electron       9.9999930 magnetization 
 augmentation part        0.6526394 magnetization 

 Broyden mixing:
  rms(total) = 0.34733E-02    rms(broyden)= 0.34624E-02
  rms(prec ) = 0.41865E-02
  weight for this iteration     100.00

 eigenvalues of (default mixing * dielectric matrix)
  average eigenvalue GAMMA=   1.7301
  0.8053  0.9467  2.3394  2.2797  2.2797

 Free energy of the ion-electron system (eV)
  ---------------------------------------------------
  alpha Z        PSCENC =         0.12758503
  Ewald energy   TEWEN  =       248.61493590
  -Hartree energ DENC   =      -728.77666316
  -exchange      EXHF   =         0.00000000
  -V(xc)+E(xc)   XCENC  =        40.39285641
  PAW double counting   =       863.72032400     -866.17296979
  entropy T*S    EENTRO =         0.00579791
  eigenvalues    EBANDS =      -152.09257243
  atomic energy  EATOM  =       579.39041991
  Solvation  Ediel_sol  =         0.00000000
  ---------------------------------------------------
  free energy    TOTEN  =       -14.79028623 eV

  energy without entropy =      -14.79608414  energy(sigma->0) =      -14.79221887


--------------------------------------------------------------------------------------------------------




--------------------------------------- Iteration      1(  11)  ---------------------------------------


    POTLOK:  cpu time    0.0200: real time    0.0239
    SETDIJ:  cpu time    0.0023: real time    0.0023
    EDDIAG:  cpu time    0.0648: real time    0.0650
  RMM-DIIS:  cpu time    0.2094: real time    0.2099
    ORTHCH:  cpu time    0.0045: real time    0.0045
       DOS:  cpu time    0.0002: real time    0.0002
    CHARGE:  cpu time    0.0104: real time    0.0105
    MIXING:  cpu time    0.0013: real time    0.0013
    --------------------------------------------
      LOOP:  cpu time    0.3129: real time    0.3176

 eigenvalue-minimisations  :   320
 total energy-change (2. order) :-0.1582871E-02  (-0.4878886E-04)
 number of electron       9.9999930 magnetization 
 augmentation part        0.6525583 magnetization 

 Broyden mixing:
  rms(total) = 0.27632E-02    rms(broyden)= 0.27623E-02
  rms(prec ) = 0.31144E-02
  weight for this iteration     100.00

 eigenvalues of (default mixing * dielectric matrix)
  average eigenvalue GAMMA=   1.6728
  3.1006  2.4258  1.7435  0.7979  0.9845  0.9845

 Free energy of the ion-electron system (eV)
  ---------------------------------------------------
  alpha Z        PSCENC =         0.12758503
  Ewald energy   TEWEN  =       248.61493590
  -Hartree energ DENC   =      -729.12602854
  -exchange      EXHF   =         0.00000000
  -V(xc)+E(xc)   XCENC  =        40.40634562
  PAW double counting   =       862.68913588     -865.14222595
  entropy T*S    EENTRO =         0.00579791
  eigenvalues    EBANDS =      -151.75783487
  atomic energy  EATOM  =       579.39041991
  Solvation  Ediel_sol  =         0.00000000
  ---------------------------------------------------
  free energy    TOTEN  =       -14.79186911 eV

  energy without entropy =      -14.79766701  energy(sigma->0) =      -14.79380174


--------------------------------------------------------------------------------------------------------




--------------------------------------- Iteration      1(  12)  ---------------------------------------


    POTLOK:  cpu time    0.0188: real time    0.0190
    SETDIJ:  cpu time    0.0012: real time    0.0012
    EDDIAG:  cpu time    0.0650: real time    0.0651
  RMM-DIIS:  cpu time    0.2120: real time    0.2125
    ORTHCH:  cpu time    0.0046: real time    0.0046
       DOS:  cpu time    0.0002: real time    0.0002
    CHARGE:  cpu time    0.0103: real time    0.0104
    MIXING:  cpu time    0.0013: real time    0.0013
    --------------------------------------------
      LOOP:  cpu time    0.3134: real time    0.3143

 eigenvalue-minimisations  :   320
 total energy-change (2. order) :-0.5329490E-03  (-0.8616469E-05)
 number of electron       9.9999930 magnetization 
 augmentation part        0.6525026 magnetization 

 Broyden mixing:
  rms(total) = 0.92275E-03    rms(broyden)= 0.92246E-03
  rms(prec ) = 0.13302E-02
  weight for this iteration     100.00

 eigenvalues of (default mixing * dielectric matrix)
  average eigenvalue GAMMA=   2.0635
  4.6046  2.7460  2.5244  1.7588  0.8013  0.9586  1.0504

 Free energy of the ion-electron system (eV)
  ---------------------------------------------------
  alpha Z        PSCENC =         0.12758503
  Ewald energy   TEWEN  =       248.61493590
  -Hartree energ DENC   =      -729.12159626
  -exchange      EXHF   =         0.00000000
  -V(xc)+E(xc)   XCENC  =        40.40340645
  PAW double counting   =       862.82294378     -865.27397941
  entropy T*S    EENTRO =         0.00579791
  eigenvalues    EBANDS =      -151.76191536
  atomic energy  EATOM  =       579.39041991
  Solvation  Ediel_sol  =         0.00000000
  ---------------------------------------------------
  free energy    TOTEN  =       -14.79240205 eV

  energy without entropy =      -14.79819996  energy(sigma->0) =      -14.79433469


--------------------------------------------------------------------------------------------------------




--------------------------------------- Iteration      1(  13)  ---------------------------------------


    POTLOK:  cpu time    0.0189: real time    0.0191
    SETDIJ:  cpu time    0.0012: real time    0.0012
    EDDIAG:  cpu time    0.0649: real time    0.0651
  RMM-DIIS:  cpu time    0.2070: real time    0.2075
    ORTHCH:  cpu time    0.0045: real time    0.0045
       DOS:  cpu time    0.0002: real time    0.0002
    CHARGE:  cpu time    0.0102: real time    0.0102
    MIXING:  cpu time    0.0014: real time    0.0014
    --------------------------------------------
      LOOP:  cpu time    0.3083: real time    0.3092

 eigenvalue-minimisations  :   310
 total energy-change (2. order) :-0.1258947E-02  (-0.2289474E-04)
 number of electron       9.9999930 magnetization 
 augmentation part        0.6524214 magnetization 

 Broyden mixing:
  rms(total) = 0.69176E-03    rms(broyden)= 0.69160E-03
  rms(prec ) = 0.76168E-03
  weight for this iteration     100.00

 eigenvalues of (default mixing * dielectric matrix)
  average eigenvalue GAMMA=   1.9763
  5.2093  2.6157  2.3800  1.7549  0.8029  0.9178  1.0648  1.0648

 Free energy of the ion-electron system (eV)
  ---------------------------------------------------
  alpha Z        PSCENC =         0.12758503
  Ewald energy   TEWEN  =       248.61493590
  -Hartree energ DENC   =      -729.24338784
  -exchange      EXHF   =         0.00000000
  -V(xc)+E(xc)   XCENC  =        40.40579895
  PAW double counting   =       863.04363963     -865.49505642
  entropy T*S    EENTRO =         0.00579791
  eigenvalues    EBANDS =      -151.64339407
  atomic energy  EATOM  =       579.39041991
  Solvation  Ediel_sol  =         0.00000000
  ---------------------------------------------------
  free energy    TOTEN  =       -14.79366100 eV

  energy without entropy =      -14.79945891  energy(sigma->0) =      -14.79559364


--------------------------------------------------------------------------------------------------------




--------------------------------------- Iteration      1(  14)  ---------------------------------------


    POTLOK:  cpu time    0.0187: real time    0.0189
    SETDIJ:  cpu time    0.0010: real time    0.0010
    EDDIAG:  cpu time    0.0645: real time    0.0646
  RMM-DIIS:  cpu time    0.2088: real time    0.2093
    ORTHCH:  cpu time    0.0045: real time    0.0045
       DOS:  cpu time    0.0002: real time    0.0002
    CHARGE:  cpu time    0.0102: real time    0.0102
    MIXING:  cpu time    0.0014: real time    0.0014
    --------------------------------------------
      LOOP:  cpu time    0.3093: real time    0.3102

 eigenvalue-minimisations  :   280
 total energy-change (2. order) :-0.1140057E-03  (-0.1392844E-05)
 number of electron       9.9999930 magnetization 
 augmentation part        0.6524016 magnetization 

 Broyden mixing:
  rms(total) = 0.36998E-03    rms(broyden)= 0.36990E-03
  rms(prec ) = 0.44738E-03
  weight for this iteration     100.00

 eigenvalues of (default mixing * dielectric matrix)
  average eigenvalue GAMMA=   2.2364
  6.3693  3.1038  2.5592  2.5592  1.7111  0.8014  0.9675  0.9675  1.0886

 Free energy of the ion-electron system (eV)
  ---------------------------------------------------
  alpha Z        PSCENC =         0.12758503
  Ewald energy   TEWEN  =       248.61493590
  -Hartree energ DENC   =      -729.26126537
  -exchange      EXHF   =         0.00000000
  -V(xc)+E(xc)   XCENC  =        40.40626981
  PAW double counting   =       862.68737533     -865.13889897
  entropy T*S    EENTRO =         0.00579791
  eigenvalues    EBANDS =      -151.62599454
  atomic energy  EATOM  =       579.39041991
  Solvation  Ediel_sol  =         0.00000000
  ---------------------------------------------------
  free energy    TOTEN  =       -14.79377501 eV

  energy without entropy =      -14.79957291  energy(sigma->0) =      -14.79570764


--------------------------------------------------------------------------------------------------------




--------------------------------------- Iteration      1(  15)  ---------------------------------------


    POTLOK:  cpu time    0.0185: real time    0.0187
    SETDIJ:  cpu time    0.0013: real time    0.0013
    EDDIAG:  cpu time    0.0648: real time    0.0650
  RMM-DIIS:  cpu time    0.2090: real time    0.2096
    ORTHCH:  cpu time    0.0046: real time    0.0046
       DOS:  cpu time    0.0002: real time    0.0002
    CHARGE:  cpu time    0.0104: real time    0.0104
    MIXING:  cpu time    0.0018: real time    0.0018
    --------------------------------------------
      LOOP:  cpu time    0.3105: real time    0.3114

 eigenvalue-minimisations  :   280
 total energy-change (2. order) :-0.3336345E-03  (-0.2174653E-05)
 number of electron       9.9999930 magnetization 
 augmentation part        0.6524437 magnetization 

 Broyden mixing:
  rms(total) = 0.22573E-03    rms(broyden)= 0.22551E-03
  rms(prec ) = 0.24550E-03
  weight for this iteration     100.00

 eigenvalues of (default mixing * dielectric matrix)
  average eigenvalue GAMMA=   2.1557
  6.6395  3.5106  2.4656  2.1138  1.7749  1.2060  1.2060  0.8008  0.9201  0.9201

 Free energy of the ion-electron system (eV)
  ---------------------------------------------------
  alpha Z        PSCENC =         0.12758503
  Ewald energy   TEWEN  =       248.61493590
  -Hartree energ DENC   =      -729.26193862
  -exchange      EXHF   =         0.00000000
  -V(xc)+E(xc)   XCENC  =        40.40551671
  PAW double counting   =       862.61029041     -865.06167157
  entropy T*S    EENTRO =         0.00579791
  eigenvalues    EBANDS =      -151.62504432
  atomic energy  EATOM  =       579.39041991
  Solvation  Ediel_sol  =         0.00000000
  ---------------------------------------------------
  free energy    TOTEN  =       -14.79410864 eV

  energy without entropy =      -14.79990655  energy(sigma->0) =      -14.79604128


--------------------------------------------------------------------------------------------------------




--------------------------------------- Iteration      1(  16)  ---------------------------------------


    POTLOK:  cpu time    0.0184: real time    0.0186
    SETDIJ:  cpu time    0.0012: real time    0.0012
    EDDIAG:  cpu time    0.0649: real time    0.0651
  RMM-DIIS:  cpu time    0.1945: real time    0.1950
    ORTHCH:  cpu time    0.0045: real time    0.0046
       DOS:  cpu time    0.0002: real time    0.0002
    CHARGE:  cpu time    0.0103: real time    0.0103
    MIXING:  cpu time    0.0015: real time    0.0015
    --------------------------------------------
      LOOP:  cpu time    0.2956: real time    0.2965

 eigenvalue-minimisations  :   260
 total energy-change (2. order) :-0.2908306E-04  (-0.1826659E-06)
 number of electron       9.9999930 magnetization 
 augmentation part        0.6524381 magnetization 

 Broyden mixing:
  rms(total) = 0.12155E-03    rms(broyden)= 0.12155E-03
  rms(prec ) = 0.14188E-03
  weight for this iteration     100.00

 eigenvalues of (default mixing * dielectric matrix)
  average eigenvalue GAMMA=   2.3455
  7.5730  4.1991  2.8614  2.3281  2.3281  1.6555  1.1966  0.8014  0.9274  0.9650
  0.9650

 Free energy of the ion-electron system (eV)
  ---------------------------------------------------
  alpha Z        PSCENC =         0.12758503
  Ewald energy   TEWEN  =       248.61493590
  -Hartree energ DENC   =      -729.25934079
  -exchange      EXHF   =         0.00000000
  -V(xc)+E(xc)   XCENC  =        40.40545245
  PAW double counting   =       862.72548718     -865.17691058
  entropy T*S    EENTRO =         0.00579791
  eigenvalues    EBANDS =      -151.62756473
  atomic energy  EATOM  =       579.39041991
  Solvation  Ediel_sol  =         0.00000000
  ---------------------------------------------------
  free energy    TOTEN  =       -14.79413772 eV

  energy without entropy =      -14.79993563  energy(sigma->0) =      -14.79607036


--------------------------------------------------------------------------------------------------------




--------------------------------------- Iteration      1(  17)  ---------------------------------------


    POTLOK:  cpu time    0.0178: real time    0.0180
    SETDIJ:  cpu time    0.0010: real time    0.0010
    EDDIAG:  cpu time    0.0649: real time    0.0650
  RMM-DIIS:  cpu time    0.1950: real time    0.1954
    ORTHCH:  cpu time    0.0045: real time    0.0046
       DOS:  cpu time    0.0002: real time    0.0002
    CHARGE:  cpu time    0.0101: real time    0.0101
    MIXING:  cpu time    0.0017: real time    0.0017
    --------------------------------------------
      LOOP:  cpu time    0.2952: real time    0.2960

 eigenvalue-minimisations  :   260
 total energy-change (2. order) :-0.4190499E-04  (-0.2380868E-06)
 number of electron       9.9999930 magnetization 
 augmentation part        0.6524286 magnetization 

 Broyden mixing:
  rms(total) = 0.38741E-04    rms(broyden)= 0.38648E-04
  rms(prec ) = 0.50009E-04
  weight for this iteration     100.00

 eigenvalues of (default mixing * dielectric matrix)
  average eigenvalue GAMMA=   2.2437
  7.6167  4.3050  2.7355  2.4694  1.7225  1.6832  1.6832  0.8013  1.1071  0.9209
  0.9209  0.9589

 Free energy of the ion-electron system (eV)
  ---------------------------------------------------
  alpha Z        PSCENC =         0.12758503
  Ewald energy   TEWEN  =       248.61493590
  -Hartree energ DENC   =      -729.25028190
  -exchange      EXHF   =         0.00000000
  -V(xc)+E(xc)   XCENC  =        40.40501294
  PAW double counting   =       862.70046093     -865.15183470
  entropy T*S    EENTRO =         0.00579791
  eigenvalues    EBANDS =      -151.63627565
  atomic energy  EATOM  =       579.39041991
  Solvation  Ediel_sol  =         0.00000000
  ---------------------------------------------------
  free energy    TOTEN  =       -14.79417963 eV

  energy without entropy =      -14.79997754  energy(sigma->0) =      -14.79611227


--------------------------------------------------------------------------------------------------------




--------------------------------------- Iteration      1(  18)  ---------------------------------------


    POTLOK:  cpu time    0.0178: real time    0.0180
    SETDIJ:  cpu time    0.0010: real time    0.0010
    EDDIAG:  cpu time    0.0645: real time    0.0646
  RMM-DIIS:  cpu time    0.1938: real time    0.1943
    ORTHCH:  cpu time    0.0045: real time    0.0045
       DOS:  cpu time    0.0002: real time    0.0002
    --------------------------------------------
      LOOP:  cpu time    0.2818: real time    0.2827

 eigenvalue-minimisations  :   235
 total energy-change (2. order) :-0.2144880E-05  (-0.2307612E-07)
 number of electron       9.9999930 magnetization 
 augmentation part        0.6524286 magnetization 

 Free energy of the ion-electron system (eV)
  ---------------------------------------------------
  alpha Z        PSCENC =         0.12758503
  Ewald energy   TEWEN  =       248.61493590
  -Hartree energ DENC   =      -729.24991529
  -exchange      EXHF   =         0.00000000
  -V(xc)+E(xc)   XCENC  =        40.40498733
  PAW double counting   =       862.69606857     -865.14743386
  entropy T*S    EENTRO =         0.00579791
  eigenvalues    EBANDS =      -151.63662727
  atomic energy  EATOM  =       579.39041991
  Solvation  Ediel_sol  =         0.00000000
  ---------------------------------------------------
  free energy    TOTEN  =       -14.79418177 eV

  energy without entropy =      -14.79997968  energy(sigma->0) =      -14.79611441


--------------------------------------------------------------------------------------------------------




 average (electrostatic) potential at core
  the test charge radii are     0.7215  0.6991
  (the norm of the test charge is              1.0000)
       1 -83.5696       2 -61.7157
 
 
 
 E-fermi :  -8.9585     XC(G=0):  -0.2319     alpha+bet : -0.0511


 k-point     1 :       0.0000    0.0000    0.0000
  band No.  band energies     occupation 
      1     -29.2527      2.00000
      2     -14.0463      2.00000
      3     -11.7388      2.00000
      4     -11.7382      2.00000
      5      -9.0427      2.00030
      6      -2.1482      0.00000
      7      -2.1476      0.00000
      8      -0.2295      0.00000
      9       0.0622      0.00000
     10       0.0954      0.00000
     11       0.4774      0.00000
     12       0.5191      0.00000
     13       1.1037      0.00000
     14       1.1320      0.00000
     15       1.1840      0.00000
     16       1.2739      0.00000

 k-point     2 :       0.2500   -0.0000    0.0000
  band No.  band energies     occupation 
      1     -29.2526      2.00000
      2     -14.0462      2.00000
      3     -11.7387      2.00000
      4     -11.7380      2.00000
      5      -9.0426      1.99996
      6      -2.1480      0.00000
      7      -2.1476      0.00000
      8      -0.1355      0.00000
      9       0.1607      0.00000
     10       0.1943      0.00000
     11       0.5623      0.00000
     12       0.6026      0.00000
     13       0.6782      0.00000
     14       0.9541      0.00000
     15       0.9745      0.00000
     16       0.9937      0.00000

 k-point     3 :       0.5000   -0.0000    0.0000
  band No.  band energies     occupation 
      1     -29.2526      2.00000
      2     -14.0462      2.00000
      3     -11.7386      2.00000
      4     -11.7381      2.00000
      5      -9.0426      1.99982
      6      -2.1483      0.00000
      7      -2.1480      0.00000
      8       0.0730      0.00000
      9       0.2537      0.00000
     10       0.4505      0.00000
     11       0.4658      0.00000
     12       0.4751      0.00000
     13       0.5124      0.00000
     14       0.8123      0.00000
     15       0.8882      0.00000
     16       0.9044      0.00000

 k-point     4 :       0.0000    0.2500    0.0000
  band No.  band energies     occupation 
      1     -29.2526      2.00000
      2     -14.0462      2.00000
      3     -11.7386      2.00000
      4     -11.7380      2.00000
      5      -9.0426      1.99993
      6      -2.1480      0.00000
      7      -2.1475      0.00000
      8      -0.1343      0.00000
      9       0.1608      0.00000
     10       0.1944      0.00000
     11       0.5656      0.00000
     12       0.6022      0.00000
     13       0.6769      0.00000
     14       0.9525      0.00000
     15       0.9734      0.00000
     16       0.9947      0.00000

 k-point     5 :       0.2500    0.2500    0.0000
  band No.  band energies     occupation 
      1     -29.2526      2.00000
      2     -14.0462      2.00000
      3     -11.7386      2.00000
      4     -11.7380      2.00000
      5      -9.0426      1.99996
      6      -2.1481      0.00000
      7      -2.1474      0.00000
      8      -0.1352      0.00000
      9       0.1607      0.00000
     10       0.1943      0.00000
     11       0.5623      0.00000
     12       0.6034      0.00000
     13       0.6748      0.00000
     14       0.9536      0.00000
     15       0.9716      0.00000
     16       0.9936      0.00000

 k-point     6 :       0.5000    0.2500    0.0000
  band No.  band energies     occupation 
      1     -29.2527      2.00000
      2     -14.0463      2.00000
      3     -11.7387      2.00000
      4     -11.7381      2.00000
      5      -9.0427      2.00022
      6      -2.1485      0.00000
      7      -2.1478      0.00000
      8       0.0398      0.00000
      9       0.3477      0.00000
     10       0.3895      0.00000
     11       0.4366      0.00000
     12       0.5394      0.00000
     13       0.7067      0.00000
     14       0.7624      0.00000
     15       0.7639      0.00000
     16       0.8242      0.00000

 k-point     7 :      -0.2500    0.2500    0.0000
  band No.  band energies     occupation 
      1     -29.2527      2.00000
      2     -14.0463      2.00000
      3     -11.7387      2.00000
      4     -11.7382      2.00000
      5      -9.0426      2.00003
      6      -2.1483      0.00000
      7      -2.1480      0.00000
      8       0.0415      0.00000
      9       0.3476      0.00000
     10       0.3900      0.00000
     11       0.4408      0.00000
     12       0.5349      0.00000
     13       0.7059      0.00000
     14       0.7611      0.00000
     15       0.7659      0.00000
     16       0.8213      0.00000

 k-point     8 :       0.0000    0.5000    0.0000
  band No.  band energies     occupation 
      1     -29.2526      2.00000
      2     -14.0462      2.00000
      3     -11.7387      2.00000
      4     -11.7381      2.00000
      5      -9.0426      1.99979
      6      -2.1487      0.00000
      7      -2.1478      0.00000
      8       0.0786      0.00000
      9       0.2533      0.00000
     10       0.4540      0.00000
     11       0.4678      0.00000
     12       0.4709      0.00000
     13       0.5115      0.00000
     14       0.8048      0.00000
     15       0.8885      0.00000
     16       0.9150      0.00000

 k-point     9 :       0.2500    0.5000    0.0000
  band No.  band energies     occupation 
      1     -29.2527      2.00000
      2     -14.0463      2.00000
      3     -11.7388      2.00000
      4     -11.7381      2.00000
      5      -9.0427      2.00004
      6      -2.1486      0.00000
      7      -2.1477      0.00000
      8       0.0427      0.00000
      9       0.3473      0.00000
     10       0.3901      0.00000
     11       0.4345      0.00000
     12       0.5400      0.00000
     13       0.7059      0.00000
     14       0.7605      0.00000
     15       0.7679      0.00000
     16       0.8201      0.00000

 k-point    10 :       0.5000    0.5000    0.0000
  band No.  band energies     occupation 
      1     -29.2527      2.00000
      2     -14.0462      2.00000
      3     -11.7387      2.00000
      4     -11.7381      2.00000
      5      -9.0426      1.99982
      6      -2.1487      0.00000
      7      -2.1476      0.00000
      8       0.0768      0.00000
      9       0.2487      0.00000
     10       0.4506      0.00000
     11       0.4657      0.00000
     12       0.4747      0.00000
     13       0.5119      0.00000
     14       0.8131      0.00000
     15       0.8867      0.00000
     16       0.9073      0.00000


--------------------------------------------------------------------------------------------------------


 soft charge-density along one line, spin component           1
         0         1         2         3         4         5         6         7         8         9
 total charge-density along one line
 
 pseudopotential strength for first ion, spin component:           1
 14.237 -17.484   0.001   0.136   0.055  -0.001  -0.171  -0.069
-17.484  21.506  -0.001  -0.172  -0.069   0.001   0.217   0.088
  0.001  -0.001 -11.059  -0.001  -0.000  13.797   0.001   0.001
  0.136  -0.172  -0.001 -11.182  -0.050   0.001  13.959   0.066
  0.055  -0.069  -0.000  -0.050 -11.079   0.001   0.066  13.824
 -0.001   0.001  13.797   0.001   0.001 -17.160  -0.001  -0.001
 -0.171   0.217   0.001  13.959   0.066  -0.001 -17.374  -0.087
 -0.069   0.088   0.001   0.066  13.824  -0.001  -0.087 -17.195
 total augmentation occupancy for first ion, spin component:           1
  3.013   0.570  -0.005  -0.664  -0.268  -0.002  -0.281  -0.114
  0.570   0.210  -0.003  -0.507  -0.205  -0.001  -0.140  -0.056
 -0.005  -0.003   1.971   0.005   0.001   0.225   0.002   0.000
 -0.664  -0.507   0.005   2.762   0.319   0.002   0.486   0.105
 -0.268  -0.205   0.001   0.319   2.100   0.000   0.105   0.267
 -0.002  -0.001   0.225   0.002   0.000   0.026   0.001   0.000
 -0.281  -0.140   0.002   0.486   0.105   0.001   0.109   0.033
 -0.114  -0.056   0.000   0.105   0.267   0.000   0.033   0.039


------------------------ aborting loop because EDIFF is reached ----------------------------------------


    CHARGE:  cpu time    0.0103: real time    0.0103
    FORLOC:  cpu time    0.0010: real time    0.0010
    FORNL :  cpu time    0.0729: real time    0.0732
    STRESS:  cpu time    0.0278: real time    0.0281
    FORCOR:  cpu time    0.0206: real time    0.0206
    FORHAR:  cpu time    0.0050: real time    0.0051
    MIXING:  cpu time    0.0013: real time    0.0013
    OFIELD:  cpu time    0.0001: real time    0.0001
 only isotrope contributions calculated
  for stress because ISIF=1 (only pressure is correct)

  FORCE on cell =-STRESS in cart. coord.  units (eV):
  Direction    XX          YY          ZZ          XY          YZ          ZX
  --------------------------------------------------------------------------------------
  Alpha Z     0.12759     0.12759     0.12759
  Ewald     123.36217    80.98174    44.27100     0.72484     1.78504   104.39296
  Hartree   320.27105   305.35411   103.62305     0.25380     0.62306    36.41757
  E(xc)     -43.82850   -43.98439   -43.03146     0.00277     0.00659     0.38536
  Local    -575.34382  -521.74927  -260.66339    -0.91267    -2.25213  -131.65463
  n-local   -22.24425   -22.24425   -22.24425     0.00000     0.00000     0.00000
  augment     6.06588     6.06588     6.06588     0.00000     0.00000     0.00000
  Kinetic   188.53943   190.73566   177.26723    -0.03439    -0.09245    -5.44427
  Fock        0.00000     0.00000     0.00000     0.00000     0.00000     0.00000
  -------------------------------------------------------------------------------------
  Total      -3.05045    -4.71294     5.41563     0.03436     0.07012     4.09698
  in kB      -1.42704    -2.20477     2.53349     0.01607     0.03280     1.91662
  external pressure =       -0.37 kB  Pullay stress =        0.00 kB


 VOLUME and BASIS-vectors are now :
 -----------------------------------------------------------------------------
  energy-cutoff  :      400.00
  volume of cell :     3424.83
      direct lattice vectors                 reciprocal lattice vectors
    11.214359184  0.000000000  0.000000000     0.089171390 -0.051483119  0.000000000
     5.607178664  9.711919634  0.000000000     0.000000000  0.102966256  0.000000000
     0.000000000  0.000000000 31.445607950     0.000000000  0.000000000  0.031800943

  length of vectors
    11.214359184 11.214358455 31.445607950     0.102966249  0.102966256  0.031800943


 FORCES acting on ions
    electron-ion (+dipol)            ewald-force                    non-local-force                 convergence-correction
 -----------------------------------------------------------------------------------------------
   -.762E+02 -.130E+01 -.191E+03   0.984E+02 0.168E+01 0.246E+03   -.223E+02 -.369E+00 -.551E+02   0.170E-03 0.709E-05 0.483E-03
   0.879E+02 0.150E+01 0.220E+03   -.984E+02 -.168E+01 -.246E+03   0.105E+02 0.185E+00 0.261E+02   -.170E-04 0.140E-06 0.364E-03
 -----------------------------------------------------------------------------------------------
   0.117E+02 0.201E+00 0.290E+02   0.000E+00 0.000E+00 0.000E+00   -.117E+02 -.184E+00 -.291E+02   0.153E-03 0.723E-05 0.847E-03
 
 
 POSITION                                       TOTAL-FORCE (eV/Angst)
 -----------------------------------------------------------------------------------
      6.46527      6.00800      6.57548        -0.007866      0.003727     -0.035798
      6.03646      6.00067      5.51501         0.007866     -0.003727      0.035798
 -----------------------------------------------------------------------------------
    total drift:                                0.007649      0.017816     -0.012540


--------------------------------------------------------------------------------------------------------



  FREE ENERGIE OF THE ION-ELECTRON SYSTEM (eV)
  ---------------------------------------------------
  free  energy   TOTEN  =       -14.79418177 eV

  energy  without entropy=      -14.79997968  energy(sigma->0) =      -14.79611441
 


--------------------------------------------------------------------------------------------------------


    POTLOK:  cpu time    0.0188: real time    0.0188


--------------------------------------------------------------------------------------------------------


 stress matrix after NEB project (eV)
     -3.05045      0.03436      4.09698
      0.03436     -4.71294      0.07012
      4.09698      0.07012      5.41563
  FORCES: max atom, RMS     0.036841    0.036841
  FORCE total and by dimension    0.052101    0.035798
  Stress total and by dimension    9.717453    5.415627
 Finite differences:
   Step               POTIM =   1.500000000000000E-002
   Degrees of freedom DOF   =            6
    WAVPRE:  cpu time    0.0052: real time    0.0060
    FEWALD:  cpu time    0.0002: real time    0.0002

 real space projection operators:
  total allocation   :        115.44 KBytes
  max/ min on nodes  :         15.75         12.75

    ORTHCH:  cpu time    0.0291: real time    0.0291
     LOOP+:  cpu time    6.0175: real time    6.0500


--------------------------------------- Iteration      2(   1)  ---------------------------------------


    POTLOK:  cpu time    0.0184: real time    0.0218
    SETDIJ:  cpu time    0.0012: real time    0.0012
     EDDAV:  cpu time    0.3294: real time    0.3303
       DOS:  cpu time    0.0002: real time    0.0002
    CHARGE:  cpu time    0.0113: real time    0.0113
    MIXING:  cpu time    0.0008: real time    0.0008
    --------------------------------------------
      LOOP:  cpu time    0.3613: real time    0.3657

 eigenvalue-minimisations  :   432
 total energy-change (2. order) : 0.2936679E-02  (-0.1273842E+00)
 number of electron       9.9999936 magnetization 
 augmentation part        0.6497137 magnetization 

 Broyden mixing:
  rms(total) = 0.19497E-01    rms(broyden)= 0.19316E-01
  rms(prec ) = 0.19587E-01
  weight for this iteration     100.00

 Free energy of the ion-electron system (eV)
  ---------------------------------------------------
  alpha Z        PSCENC =         0.12758503
  Ewald energy   TEWEN  =       247.12374096
  -Hartree energ DENC   =      -728.35466713
  -exchange      EXHF   =         0.00000000
  -V(xc)+E(xc)   XCENC  =        40.37813578
  PAW double counting   =       862.71769146     -865.16908475
  entropy T*S    EENTRO =         0.00579791
  eigenvalues    EBANDS =      -151.01086212
  atomic energy  EATOM  =       579.39041991
  Solvation  Ediel_sol  =         0.00000000
  ---------------------------------------------------
  free energy    TOTEN  =       -14.79124295 eV

  energy without entropy =      -14.79704086  energy(sigma->0) =      -14.79317559


--------------------------------------------------------------------------------------------------------




--------------------------------------- Iteration      2(   2)  ---------------------------------------


    POTLOK:  cpu time    0.0175: real time    0.0179
    SETDIJ:  cpu time    0.0012: real time    0.0012
    EDDIAG:  cpu time    0.0645: real time    0.0647
  RMM-DIIS:  cpu time    0.2123: real time    0.2129
    ORTHCH:  cpu time    0.0045: real time    0.0045
       DOS:  cpu time    0.0002: real time    0.0002
    CHARGE:  cpu time    0.0105: real time    0.0105
    MIXING:  cpu time    0.0009: real time    0.0009
    --------------------------------------------
      LOOP:  cpu time    0.3118: real time    0.3130

 eigenvalue-minimisations  :   320
 total energy-change (2. order) :-0.1020396E-02  (-0.1577948E-02)
 number of electron       9.9999936 magnetization 
 augmentation part        0.6491821 magnetization 

 Broyden mixing:
  rms(total) = 0.12181E-01    rms(broyden)= 0.12154E-01
  rms(prec ) = 0.12316E-01
  weight for this iteration     100.00

 eigenvalues of (default mixing * dielectric matrix)
  average eigenvalue GAMMA=   1.3341
  1.3341

 Free energy of the ion-electron system (eV)
  ---------------------------------------------------
  alpha Z        PSCENC =         0.12758503
  Ewald energy   TEWEN  =       247.12374096
  -Hartree energ DENC   =      -728.21462596
  -exchange      EXHF   =         0.00000000
  -V(xc)+E(xc)   XCENC  =        40.37003411
  PAW double counting   =       858.81104374     -861.25936679
  entropy T*S    EENTRO =         0.00579791
  eigenvalues    EBANDS =      -151.14689225
  atomic energy  EATOM  =       579.39041991
  Solvation  Ediel_sol  =         0.00000000
  ---------------------------------------------------
  free energy    TOTEN  =       -14.79226335 eV

  energy without entropy =      -14.79806125  energy(sigma->0) =      -14.79419598


--------------------------------------------------------------------------------------------------------




--------------------------------------- Iteration      2(   3)  ---------------------------------------


    POTLOK:  cpu time    0.0179: real time    0.0182
    SETDIJ:  cpu time    0.0012: real time    0.0012
    EDDIAG:  cpu time    0.0644: real time    0.0646
  RMM-DIIS:  cpu time    0.2108: real time    0.2116
    ORTHCH:  cpu time    0.0045: real time    0.0045
       DOS:  cpu time    0.0002: real time    0.0002
    CHARGE:  cpu time    0.0102: real time    0.0102
    MIXING:  cpu time    0.0010: real time    0.0010
    --------------------------------------------
      LOOP:  cpu time    0.3103: real time    0.3117

 eigenvalue-minimisations  :   320
 total energy-change (2. order) : 0.6269219E-04  (-0.4163632E-04)
 number of electron       9.9999936 magnetization 
 augmentation part        0.6494281 magnetization 

 Broyden mixing:
  rms(total) = 0.55858E-02    rms(broyden)= 0.55811E-02
  rms(prec ) = 0.56415E-02
  weight for this iteration     100.00

 eigenvalues of (default mixing * dielectric matrix)
  average eigenvalue GAMMA=   1.6603
  1.0000  2.3206

 Free energy of the ion-electron system (eV)
  ---------------------------------------------------
  alpha Z        PSCENC =         0.12758503
  Ewald energy   TEWEN  =       247.12374096
  -Hartree energ DENC   =      -728.07517461
  -exchange      EXHF   =         0.00000000
  -V(xc)+E(xc)   XCENC  =        40.36243138
  PAW double counting   =       855.86136794     -858.30613468
  entropy T*S    EENTRO =         0.00579791
  eigenvalues    EBANDS =      -151.28223449
  atomic energy  EATOM  =       579.39041991
  Solvation  Ediel_sol  =         0.00000000
  ---------------------------------------------------
  free energy    TOTEN  =       -14.79220065 eV

  energy without entropy =      -14.79799856  energy(sigma->0) =      -14.79413329


--------------------------------------------------------------------------------------------------------




--------------------------------------- Iteration      2(   4)  ---------------------------------------


    POTLOK:  cpu time    0.0172: real time    0.0175
    SETDIJ:  cpu time    0.0012: real time    0.0012
    EDDIAG:  cpu time    0.0647: real time    0.0649
  RMM-DIIS:  cpu time    0.2088: real time    0.2093
    ORTHCH:  cpu time    0.0047: real time    0.0047
       DOS:  cpu time    0.0002: real time    0.0002
    CHARGE:  cpu time    0.0104: real time    0.0104
    MIXING:  cpu time    0.0011: real time    0.0011
    --------------------------------------------
      LOOP:  cpu time    0.3083: real time    0.3093

 eigenvalue-minimisations  :   320
 total energy-change (2. order) :-0.6395536E-04  (-0.1308624E-04)
 number of electron       9.9999935 magnetization 
 augmentation part        0.6493719 magnetization 

 Broyden mixing:
  rms(total) = 0.13208E-02    rms(broyden)= 0.13185E-02
  rms(prec ) = 0.13529E-02
  weight for this iteration     100.00

 eigenvalues of (default mixing * dielectric matrix)
  average eigenvalue GAMMA=   1.4586
  2.2864  1.0447  1.0447

 Free energy of the ion-electron system (eV)
  ---------------------------------------------------
  alpha Z        PSCENC =         0.12758503
  Ewald energy   TEWEN  =       247.12374096
  -Hartree energ DENC   =      -728.02578544
  -exchange      EXHF   =         0.00000000
  -V(xc)+E(xc)   XCENC  =        40.35984935
  PAW double counting   =       853.42808610     -855.87110704
  entropy T*S    EENTRO =         0.00579791
  eigenvalues    EBANDS =      -151.33085138
  atomic energy  EATOM  =       579.39041991
  Solvation  Ediel_sol  =         0.00000000
  ---------------------------------------------------
  free energy    TOTEN  =       -14.79226461 eV

  energy without entropy =      -14.79806252  energy(sigma->0) =      -14.79419725


--------------------------------------------------------------------------------------------------------




--------------------------------------- Iteration      2(   5)  ---------------------------------------


    POTLOK:  cpu time    0.0179: real time    0.0181
    SETDIJ:  cpu time    0.0010: real time    0.0010
    EDDIAG:  cpu time    0.0675: real time    0.0677
  RMM-DIIS:  cpu time    0.1980: real time    0.1985
    ORTHCH:  cpu time    0.0045: real time    0.0046
       DOS:  cpu time    0.0002: real time    0.0002
    --------------------------------------------
[...]
       DOS:  cpu time    0.0002: real time    0.0002
    CHARGE:  cpu time    0.0103: real time    0.0104
    MIXING:  cpu time    0.0014: real time    0.0014
    --------------------------------------------
      LOOP:  cpu time    0.2963: real time    0.2975

 eigenvalue-minimisations  :   270
 total energy-change (2. order) :-0.4278041E-04  (-0.4643595E-06)
 number of electron       9.9999932 magnetization 
 augmentation part        0.6450970 magnetization 

 Broyden mixing:
  rms(total) = 0.27491E-03    rms(broyden)= 0.27477E-03
  rms(prec ) = 0.28930E-03
  weight for this iteration     100.00

 eigenvalues of (default mixing * dielectric matrix)
  average eigenvalue GAMMA=   1.8426
  4.4555  2.5643  2.3684  1.5587  0.8228  0.9352  1.0181  1.0181

 Free energy of the ion-electron system (eV)
  ---------------------------------------------------
  alpha Z        PSCENC =         0.12758503
  Ewald energy   TEWEN  =       244.96010728
  -Hartree energ DENC   =      -726.30800983
  -exchange      EXHF   =         0.00000000
  -V(xc)+E(xc)   XCENC  =        40.29970221
  PAW double counting   =       839.12672300     -841.55908255
  entropy T*S    EENTRO =         0.00579791
  eigenvalues    EBANDS =      -150.82629659
  atomic energy  EATOM  =       579.39041991
  Solvation  Ediel_sol  =         0.00000000
  ---------------------------------------------------
  free energy    TOTEN  =       -14.78305364 eV

  energy without entropy =      -14.78885154  energy(sigma->0) =      -14.78498627


--------------------------------------------------------------------------------------------------------




--------------------------------------- Iteration     13(  10)  ---------------------------------------


    POTLOK:  cpu time    0.0174: real time    0.0177
    SETDIJ:  cpu time    0.0010: real time    0.0010
    EDDIAG:  cpu time    0.0641: real time    0.0643
  RMM-DIIS:  cpu time    0.1963: real time    0.1967
    ORTHCH:  cpu time    0.0045: real time    0.0045
       DOS:  cpu time    0.0002: real time    0.0002
    --------------------------------------------
      LOOP:  cpu time    0.2835: real time    0.2845

 eigenvalue-minimisations  :   270
 total energy-change (2. order) :-0.8492448E-05  (-0.1313981E-06)
 number of electron       9.9999932 magnetization 
 augmentation part        0.6450970 magnetization 

 Free energy of the ion-electron system (eV)
  ---------------------------------------------------
  alpha Z        PSCENC =         0.12758503
  Ewald energy   TEWEN  =       244.96010728
  -Hartree energ DENC   =      -726.29762921
  -exchange      EXHF   =         0.00000000
  -V(xc)+E(xc)   XCENC  =        40.29912737
  PAW double counting   =       839.14927536     -841.58148087
  entropy T*S    EENTRO =         0.00579791
  eigenvalues    EBANDS =      -150.83626488
  atomic energy  EATOM  =       579.39041991
  Solvation  Ediel_sol  =         0.00000000
  ---------------------------------------------------
  free energy    TOTEN  =       -14.78306213 eV

  energy without entropy =      -14.78886004  energy(sigma->0) =      -14.78499477


--------------------------------------------------------------------------------------------------------




 average (electrostatic) potential at core
  the test charge radii are     0.7215  0.6991
  (the norm of the test charge is              1.0000)
       1 -83.5094       2 -61.7738
 
 
 
 E-fermi :  -8.9891     XC(G=0):  -0.2368     alpha+bet : -0.0511


 k-point     1 :       0.0000    0.0000    0.0000
  band No.  band energies     occupation 
      1     -29.0494      2.00000
      2     -14.0573      2.00000
      3     -11.6196      2.00000
      4     -11.6190      2.00000
      5      -9.0734      2.00029
      6      -2.2791      0.00000
      7      -2.2785      0.00000
      8      -0.2354      0.00000
      9       0.0596      0.00000
     10       0.0852      0.00000
     11       0.4405      0.00000
     12       0.5424      0.00000
     13       1.0995      0.00000
     14       1.1321      0.00000
     15       1.1827      0.00000
     16       1.2720      0.00000

 k-point     2 :       0.2500   -0.0000    0.0000
  band No.  band energies     occupation 
      1     -29.0493      2.00000
      2     -14.0572      2.00000
      3     -11.6194      2.00000
      4     -11.6188      2.00000
      5      -9.0733      1.99996
      6      -2.2789      0.00000
      7      -2.2784      0.00000
      8      -0.1408      0.00000
      9       0.1586      0.00000
     10       0.1823      0.00000
     11       0.5227      0.00000
     12       0.6372      0.00000
     13       0.6621      0.00000
     14       0.9518      0.00000
     15       0.9673      0.00000
     16       0.9838      0.00000

 k-point     3 :       0.5000   -0.0000    0.0000
  band No.  band energies     occupation 
      1     -29.0493      2.00000
      2     -14.0572      2.00000
      3     -11.6194      2.00000
      4     -11.6189      2.00000
      5      -9.0733      1.99982
      6      -2.2792      0.00000
      7      -2.2788      0.00000
      8       0.0715      0.00000
      9       0.2446      0.00000
     10       0.4325      0.00000
     11       0.4508      0.00000
     12       0.4687      0.00000
     13       0.5237      0.00000
     14       0.7734      0.00000
     15       0.8846      0.00000
     16       0.9213      0.00000

 k-point     4 :       0.0000    0.2500    0.0000
  band No.  band energies     occupation 
      1     -29.0493      2.00000
      2     -14.0572      2.00000
      3     -11.6194      2.00000
      4     -11.6188      2.00000
      5      -9.0733      1.99995
      6      -2.2789      0.00000
      7      -2.2784      0.00000
      8      -0.1398      0.00000
      9       0.1588      0.00000
     10       0.1824      0.00000
     11       0.5251      0.00000
     12       0.6382      0.00000
     13       0.6635      0.00000
     14       0.9487      0.00000
     15       0.9608      0.00000
     16       0.9867      0.00000

 k-point     5 :       0.2500    0.2500    0.0000
  band No.  band energies     occupation 
      1     -29.0493      2.00000
      2     -14.0572      2.00000
      3     -11.6194      2.00000
      4     -11.6188      2.00000
      5      -9.0733      1.99996
      6      -2.2790      0.00000
      7      -2.2783      0.00000
      8      -0.1405      0.00000
      9       0.1587      0.00000
     10       0.1824      0.00000
     11       0.5230      0.00000
     12       0.6375      0.00000
     13       0.6591      0.00000
     14       0.9518      0.00000
     15       0.9649      0.00000
     16       0.9832      0.00000

 k-point     6 :       0.5000    0.2500    0.0000
  band No.  band energies     occupation 
      1     -29.0493      2.00000
      2     -14.0572      2.00000
      3     -11.6195      2.00000
      4     -11.6189      2.00000
      5      -9.0733      2.00022
      6      -2.2794      0.00000
      7      -2.2787      0.00000
      8       0.0364      0.00000
      9       0.3478      0.00000
     10       0.3678      0.00000
     11       0.4315      0.00000
     12       0.5354      0.00000
     13       0.6791      0.00000
     14       0.7508      0.00000
     15       0.7684      0.00000
     16       0.8299      0.00000

 k-point     7 :      -0.2500    0.2500    0.0000
  band No.  band energies     occupation 
      1     -29.0493      2.00000
      2     -14.0572      2.00000
      3     -11.6195      2.00000
      4     -11.6189      2.00000
      5      -9.0733      2.00002
      6      -2.2792      0.00000
      7      -2.2789      0.00000
      8       0.0377      0.00000
      9       0.3485      0.00000
     10       0.3686      0.00000
     11       0.4393      0.00000
     12       0.5255      0.00000
     13       0.6800      0.00000
     14       0.7518      0.00000
     15       0.7670      0.00000
     16       0.8279      0.00000

 k-point     8 :       0.0000    0.5000    0.0000
  band No.  band energies     occupation 
      1     -29.0493      2.00000
      2     -14.0572      2.00000
      3     -11.6194      2.00000
      4     -11.6188      2.00000
      5      -9.0732      1.99980
      6      -2.2795      0.00000
      7      -2.2787      0.00000
      8       0.0745      0.00000
      9       0.2498      0.00000
     10       0.4313      0.00000
     11       0.4507      0.00000
     12       0.4690      0.00000
     13       0.5243      0.00000
     14       0.7657      0.00000
     15       0.8815      0.00000
     16       0.9232      0.00000

 k-point     9 :       0.2500    0.5000    0.0000
  band No.  band energies     occupation 
      1     -29.0493      2.00000
      2     -14.0572      2.00000
      3     -11.6195      2.00000
      4     -11.6189      2.00000
      5      -9.0733      2.00003
      6      -2.2795      0.00000
      7      -2.2785      0.00000
      8       0.0388      0.00000
      9       0.3482      0.00000
     10       0.3683      0.00000
     11       0.4336      0.00000
     12       0.5305      0.00000
     13       0.6798      0.00000
     14       0.7510      0.00000
     15       0.7679      0.00000
     16       0.8264      0.00000

 k-point    10 :       0.5000    0.5000    0.0000
  band No.  band energies     occupation 
      1     -29.0493      2.00000
      2     -14.0572      2.00000
      3     -11.6195      2.00000
      4     -11.6189      2.00000
      5      -9.0733      1.99982
      6      -2.2795      0.00000
      7      -2.2785      0.00000
      8       0.0751      0.00000
      9       0.2397      0.00000
     10       0.4328      0.00000
     11       0.4515      0.00000
     12       0.4676      0.00000
     13       0.5230      0.00000
     14       0.7744      0.00000
     15       0.8816      0.00000
     16       0.9215      0.00000


--------------------------------------------------------------------------------------------------------


 soft charge-density along one line, spin component           1
         0         1         2         3         4         5         6         7         8         9
 total charge-density along one line
 
 pseudopotential strength for first ion, spin component:           1
 14.229 -17.474   0.001   0.131   0.052  -0.001  -0.165  -0.066
-17.474  21.493  -0.001  -0.166  -0.066   0.001   0.209   0.083
  0.001  -0.001 -11.053  -0.001  -0.000  13.789   0.001   0.000
  0.131  -0.166  -0.001 -11.167  -0.046   0.001  13.940   0.060
  0.052  -0.066  -0.000  -0.046 -11.071   0.000   0.060  13.813
 -0.001   0.001  13.789   0.001   0.000 -17.149  -0.001  -0.001
 -0.165   0.209   0.001  13.940   0.060  -0.001 -17.348  -0.080
 -0.066   0.083   0.000   0.060  13.813  -0.001  -0.080 -17.181
 total augmentation occupancy for first ion, spin component:           1
  2.978   0.551  -0.004  -0.642  -0.256  -0.002  -0.274  -0.109
  0.551   0.203  -0.003  -0.498  -0.199  -0.001  -0.137  -0.055
 -0.004  -0.003   1.956   0.005   0.001   0.220   0.002   0.000
 -0.642  -0.498   0.005   2.737   0.311   0.002   0.482   0.104
 -0.256  -0.199   0.001   0.311   2.080   0.000   0.104   0.261
 -0.002  -0.001   0.220   0.002   0.000   0.025   0.001   0.000
 -0.274  -0.137   0.002   0.482   0.104   0.001   0.108   0.033
 -0.109  -0.055   0.000   0.104   0.261   0.000   0.033   0.038


------------------------ aborting loop because EDIFF is reached ----------------------------------------


    CHARGE:  cpu time    0.0104: real time    0.0105
    FORLOC:  cpu time    0.0009: real time    0.0009
    FORNL :  cpu time    0.0717: real time    0.0720
    STRESS:  cpu time    0.0269: real time    0.0269
    FORCOR:  cpu time    0.0210: real time    0.0210
    FORHAR:  cpu time    0.0045: real time    0.0045
    MIXING:  cpu time    0.0010: real time    0.0010
    OFIELD:  cpu time    0.0000: real time    0.0000
 only isotrope contributions calculated
  for stress because ISIF=1 (only pressure is correct)

  FORCE on cell =-STRESS in cart. coord.  units (eV):
  Direction    XX          YY          ZZ          XY          YZ          ZX
  --------------------------------------------------------------------------------------
  Alpha Z     0.12759     0.12759     0.12759
  Ewald     121.80538    80.93742    42.21729     0.69897     1.74542   102.07570
  Hartree   318.82521   304.21945   103.24956     0.24848     0.61859    36.15520
  E(xc)     -43.72117   -43.87291   -42.91898     0.00271     0.00651     0.38038
  Local    -572.38293  -520.27213  -259.43067    -0.88731    -2.22042  -129.79813
  n-local   -21.98476   -21.98476   -21.98476     0.00000     0.00000     0.00000
  augment     6.07241     6.07241     6.07241     0.00000     0.00000     0.00000
  Kinetic   187.99007   190.16049   176.47132    -0.03393    -0.09267    -5.45638
  Fock        0.00000     0.00000     0.00000     0.00000     0.00000     0.00000
  -------------------------------------------------------------------------------------
  Total      -3.26821    -4.61245     3.80375     0.02893     0.05743     3.35677
  in kB      -1.52891    -2.15776     1.77944     0.01353     0.02686     1.57034
  external pressure =       -0.64 kB  Pullay stress =        0.00 kB


 VOLUME and BASIS-vectors are now :
 -----------------------------------------------------------------------------
  energy-cutoff  :      400.00
  volume of cell :     3424.83
      direct lattice vectors                 reciprocal lattice vectors
    11.214359184  0.000000000  0.000000000     0.089171390 -0.051483119  0.000000000
     5.607178664  9.711919634  0.000000000     0.000000000  0.102966256  0.000000000
     0.000000000  0.000000000 31.445607950     0.000000000  0.000000000  0.031800943

  length of vectors
    11.214359184 11.214358455 31.445607950     0.102966249  0.102966256  0.031800943


 FORCES acting on ions
    electron-ion (+dipol)            ewald-force                    non-local-force                 convergence-correction
 -----------------------------------------------------------------------------------------------
   -.738E+02 -.126E+01 -.188E+03   0.949E+02 0.162E+01 0.241E+03   -.216E+02 -.358E+00 -.543E+02   -.464E-03 -.430E-05 -.165E-02
   0.851E+02 0.145E+01 0.216E+03   -.949E+02 -.162E+01 -.241E+03   0.104E+02 0.182E+00 0.261E+02   0.184E-03 0.344E-05 -.483E-03
 -----------------------------------------------------------------------------------------------
   0.112E+02 0.193E+00 0.282E+02   0.000E+00 0.000E+00 0.000E+00   -.112E+02 -.176E+00 -.282E+02   -.280E-03 -.863E-06 -.214E-02
 
 
 POSITION                                       TOTAL-FORCE (eV/Angst)
 -----------------------------------------------------------------------------------
      6.46527      6.00800      6.57548        -0.564323     -0.005601     -1.429671
      6.03646      6.00067      5.50001         0.564323      0.005601      1.429671
 -----------------------------------------------------------------------------------
    total drift:                                0.008333      0.017430     -0.015216


--------------------------------------------------------------------------------------------------------



  FREE ENERGIE OF THE ION-ELECTRON SYSTEM (eV)
  ---------------------------------------------------
  free  energy   TOTEN  =       -14.78306213 eV

  energy  without entropy=      -14.78886004  energy(sigma->0) =      -14.78499477
 
 d Force = 0.9687204E-03[-0.429E-01, 0.448E-01]  d Energy =-0.2603998E-03 0.123E-02
 d Force = 0.7392984E+01[ 0.723E+01, 0.756E+01]  d Ewald  = 0.7391346E+01 0.164E-02


--------------------------------------------------------------------------------------------------------


    POTLOK:  cpu time    0.0186: real time    0.0187


--------------------------------------------------------------------------------------------------------


 stress matrix after NEB project (eV)
     -3.26821      0.02893      3.35677
      0.02893     -4.61245      0.05743
      3.35677      0.05743      3.80375
  FORCES: max atom, RMS     1.537026    1.537026
  FORCE total and by dimension    2.173683    1.429671
  Stress total and by dimension    8.304725    4.612445
 Finite differences progress:
  Degree of freedom:   6/  6
  Displacement:        2/  2
  Total:              12/ 12
 
 SECOND DERIVATIVES (NOT SYMMETRIZED)
 ------------------------------------
               1X          1Y          1Z          2X          2Y          2Z 
  1X   -16.173659   -0.286547  -39.989542   16.173659    0.286547   39.989542
  1Y    -0.365026   -0.109840   -0.849674    0.365026    0.109840    0.849674
  1Z   -39.486507   -0.639280  -97.233095   39.486507    0.639280   97.233095
  2X    15.764793    0.341033   39.554877  -15.764793   -0.341033  -39.554877
  2Y     0.300296   -0.094258    0.679915   -0.300296    0.094258   -0.679915
  2Z    39.636666    0.638840   97.464087  -39.636666   -0.638840  -97.464087
 
 
 Eigenvectors and eigenvalues of the dynamical matrix
 ----------------------------------------------------
 
 
   1 f  =   63.584175 THz   399.511152 2PiTHz 2120.939706 cm-1   262.963104 meV
             X         Y         Z           dx          dy          dz
      6.465274  6.008000  6.575475     0.247525    0.004722    0.606151  
      6.036460  6.000668  5.515011    -0.283834   -0.004841   -0.700503  
 
   2 f  =    1.302980 THz     8.186864 2PiTHz   43.462730 cm-1     5.388694 meV
             X         Y         Z           dx          dy          dz
      6.465274  6.008000  6.575475     0.040467   -0.988698    0.033042  
      6.036460  6.000668  5.515011     0.131554    0.046239   -0.017398  
 
   3 f  =    0.728006 THz     4.574196 2PiTHz   24.283664 cm-1     3.010792 meV
             X         Y         Z           dx          dy          dz
      6.465274  6.008000  6.575475    -0.867671   -0.085980    0.240904  
      6.036460  6.000668  5.515011    -0.419049   -0.032172    0.071298  
 
   4 f/i=    0.016835 THz     0.105775 2PiTHz    0.561542 cm-1     0.069622 meV
             X         Y         Z           dx          dy          dz
      6.465274  6.008000  6.575475    -0.176211   -0.042738   -0.733956  
      6.036460  6.000668  5.515011    -0.153515   -0.037377   -0.635191  
 
   5 f/i=    1.344847 THz     8.449920 2PiTHz   44.859251 cm-1     5.561840 meV
             X         Y         Z           dx          dy          dz
      6.465274  6.008000  6.575475     0.111911   -0.061942   -0.018867  
      6.036460  6.000668  5.515011    -0.140096   -0.977857    0.086323  
 
   6 f/i=    2.707966 THz    17.014649 2PiTHz   90.328005 cm-1    11.199249 meV
             X         Y         Z           dx          dy          dz
      6.465274  6.008000  6.575475    -0.375056    0.096945    0.185490  
      6.036460  6.000668  5.515011     0.826641   -0.197995   -0.304943  
 
 Finite differences POTIM=  1.500000000000000E-002
     LOOP+:  cpu time    3.1917: real time    3.2086
    4ORBIT:  cpu time    0.0000: real time    0.0000

 total amount of memory used by VASP MPI-rank0    41567. kBytes
=======================================================================

   base      :      30000. kBytes
   nonlr-proj:         51. kBytes
   fftplans  :       3597. kBytes
   grid      :       5433. kBytes
   one-center:          3. kBytes
   wavefun   :       2483. kBytes
 
  
  
 General timing and accounting informations for this job:
 ========================================================
  
                  Total CPU time used (sec):       36.831
                            User time (sec):       36.465
                          System time (sec):        0.366
                         Elapsed time (sec):       37.511
  
                   Maximum memory used (kb):      230052.
                   Average memory used (kb):           0.
  
                          Minor page faults:        64704
                          Major page faults:            0
                 Voluntary context switches:         1375
