<?xml version="1.0" encoding="ISO-8859-1"?>
<modeling>
 <generator>
  <i name="program" type="string">vasp </i>
  <i name="version" type="string">5.4.4.18Apr17-6-g9f103f2a35  </i>
  <i name="subversion" type="string">(build May 23 2022 10:35:18) complex            parallel </i>
  <i name="platform" type="string">IFC18_impi </i>
  <i name="date" type="string">2023 06 20 </i>
  <i name="time" type="string">15:27:45 </i>
 </generator>
 <incar>
  <i type="string" name="SYSTEM"> Pt</i>
  <i type="int" name="ISTART">     0</i>
  <i type="string" name="PREC">med   normal | accurate</i>
  <i type="string" name="ALGO">  Fast    Normal, Fast, Very_Fast</i>
  <i type="int" name="ICHARG">     2</i>
  <i type="int" name="INIWAV">     1</i>
  <i type="int" name="NELM">   100</i>
  <i type="int" name="IBRION">     5</i>
  <i type="int" name="NFREE">     2</i>
  <i name="EDIFF">      0.00001000</i>
  <i type="int" name="NSW">     1</i>
  <i type="int" name="ISIF">     1</i>
  <i type="int" name="ISYM">     0</i>
  <i name="ENCUT">    400.00000000</i>
  <i name="POTIM">      0.01500000</i>
  <i type="string" name="LREAL">  Auto     real-space projection (.FALSE</i>
  <i type="int" name="ISMEAR">     1</i>
  <i name="SIGMA">      0.10000000</i>
  <i type="int" name="NWRITE">     2</i>
  <i type="logical" name="LWAVE"> F  </i>
  <i type="logical" name="LCHARG"> F  </i>
  <i type="logical" name="LAECHG"> F  </i>
  <v type="int" name="KPOINT_BSE">    -1     0     0     0</v>
  <i type="int" name="NELM">   100</i>
 </incar>
 <structure name="primitive_cell" >
  <crystal>
   <varray name="basis" >
    <v>      11.21435918       0.00000000       0.00000000 </v>
    <v>       5.60717866       9.71191963       0.00000000 </v>
    <v>       0.00000000       0.00000000      31.44560795 </v>
   </varray>
   <i name="volume">   3424.83408825 </i>
   <varray name="rec_basis" >
    <v>       0.08917139      -0.05148312       0.00000000 </v>
    <v>       0.00000000       0.10296626       0.00000000 </v>
    <v>       0.00000000       0.00000000       0.03180094 </v>
   </varray>
  </crystal>
  <varray name="positions" >
   <v>       0.26720689      -0.38137872       0.20910631 </v>
   <v>       0.22934645      -0.38213371       0.17538255 </v>
  </varray>
 </structure>
 <varray name="primitive_index" >
  <v type="int" >        1 </v>
  <v type="int" >        2 </v>
 </varray>
 <kpoints>
  <generation param="Gamma">
   <v type="int" name="divisions">       4        4        1 </v>
   <v name="usershift">      0.00000000       0.00000000       0.00000000 </v>
   <v name="genvec1">      0.25000000      -0.00000000       0.00000000 </v>
   <v name="genvec2">      0.00000000       0.25000000       0.00000000 </v>
   <v name="genvec3">      0.00000000       0.00000000       1.00000000 </v>
   <v name="shift">      0.00000000       0.00000000       0.00000000 </v>
  </generation>
  <varray name="kpointlist" >
   <v>       0.00000000       0.00000000       0.00000000 </v>
   <v>       0.25000000      -0.00000000       0.00000000 </v>
   <v>       0.50000000      -0.00000000       0.00000000 </v>
   <v>       0.00000000       0.25000000       0.00000000 </v>
   <v>       0.25000000       0.25000000       0.00000000 </v>
   <v>       0.50000000       0.25000000       0.00000000 </v>
   <v>      -0.25000000       0.25000000       0.00000000 </v>
   <v>       0.00000000       0.50000000       0.00000000 </v>
   <v>       0.25000000       0.50000000       0.00000000 </v>
   <v>       0.50000000       0.50000000       0.00000000 </v>
  </varray>
  <varray name="weights" >
   <v>       0.06250000 </v>
   <v>       0.12500000 </v>
   <v>       0.06250000 </v>
   <v>       0.12500000 </v>
   <v>       0.12500000 </v>
   <v>       0.12500000 </v>
   <v>       0.12500000 </v>
   <v>       0.06250000 </v>
   <v>       0.12500000 </v>
   <v>       0.06250000 </v>
  </varray>
 </kpoints>
 <parameters>
  <separator name="general" >
   <i type="string" name="SYSTEM">Pt</i>
   <i type="logical" name="LCOMPAT"> F  </i>
  </separator>
  <separator name="electronic" >
   <i type="string" name="PREC">med</i>
   <i name="ENMAX">    400.00000000</i>
   <i name="ENAUG">    644.87300000</i>
   <i name="EDIFF">      0.00001000</i>
   <i type="int" name="IALGO">    68</i>
   <i type="int" name="IWAVPR">    11</i>
   <i type="int" name="NBANDS">    16</i>
   <i name="NELECT">     10.00000000</i>
   <i type="int" name="TURBO">     0</i>
   <i type="int" name="IRESTART">     0</i>
   <i type="int" name="NREBOOT">     0</i>
   <i type="int" name="NMIN">     0</i>
   <i name="EREF">      0.00000000</i>
   <separator name="electronic smearing" >
    <i type="int" name="ISMEAR">     1</i>
    <i name="SIGMA">      0.10000000</i>
    <i name="KSPACING">      0.50000000</i>
    <i type="logical" name="KGAMMA"> T  </i>
   </separator>
   <separator name="electronic projectors" >
    <i type="logical" name="LREAL"> T  </i>
    <v name="ROPT">     -0.00200000     -0.00200000</v>
    <i type="int" name="LMAXPAW">  -100</i>
    <i type="int" name="LMAXMIX">     2</i>
    <i type="logical" name="NLSPLINE"> F  </i>
   </separator>
   <separator name="electronic startup" >
    <i type="int" name="ISTART">     0</i>
    <i type="int" name="ICHARG">     2</i>
    <i type="int" name="INIWAV">     1</i>
   </separator>
   <separator name="electronic spin" >
    <i type="int" name="ISPIN">     1</i>
    <i type="logical" name="LNONCOLLINEAR"> F  </i>
    <v name="MAGMOM">      1.00000000      1.00000000</v>
    <i name="NUPDOWN">     -1.00000000</i>
    <i type="logical" name="LSORBIT"> F  </i>
    <v name="SAXIS">      0.00000000      0.00000000      1.00000000</v>
    <i type="logical" name="LSPIRAL"> F  </i>
    <v name="QSPIRAL">      0.00000000      0.00000000      0.00000000</v>
    <i type="logical" name="LZEROZ"> F  </i>
   </separator>
   <separator name="electronic exchange-correlation" >
    <i type="logical" name="LASPH"> F  </i>
    <i type="logical" name="LMETAGGA"> F  </i>
   </separator>
   <separator name="electronic convergence" >
    <i type="int" name="NELM">   100</i>
    <i type="int" name="NELMDL">    -5</i>
    <i type="int" name="NELMIN">     2</i>
    <i name="ENINI">    400.00000000</i>
    <separator name="electronic convergence detail" >
     <i type="logical" name="LDIAG"> T  </i>
     <i type="logical" name="LSUBROT"> F  </i>
     <i name="WEIMIN">      0.00100000</i>
     <i name="EBREAK">      0.00000016</i>
     <i name="DEPER">      0.30000000</i>
     <i type="int" name="NRMM">     4</i>
     <i name="TIME">      0.40000000</i>
    </separator>
   </separator>
   <separator name="electronic mixer" >
    <i name="AMIX">      0.40000000</i>
    <i name="BMIX">      1.00000000</i>
    <i name="AMIN">      0.10000000</i>
    <i name="AMIX_MAG">      1.60000000</i>
    <i name="BMIX_MAG">      1.00000000</i>
    <separator name="electronic mixer details" >
     <i type="int" name="IMIX">     4</i>
     <i type="logical" name="MIXFIRST"> F  </i>
     <i type="int" name="MAXMIX">   -45</i>
     <i name="WC">    100.00000000</i>
     <i type="int" name="INIMIX">     1</i>
     <i type="int" name="MIXPRE">     1</i>
     <i type="int" name="MREMOVE">     5</i>
    </separator>
   </separator>
   <separator name="electronic dipolcorrection" >
    <i type="logical" name="LDIPOL"> F  </i>
    <i type="logical" name="LMONO"> F  </i>
    <i type="int" name="IDIPOL">     0</i>
    <i name="EPSILON">      1.00000000</i>
    <v name="DIPOL">   -100.00000000   -100.00000000   -100.00000000</v>
    <i name="EFIELD">      0.00000000</i>
   </separator>
  </separator>
  <separator name="grids" >
   <i type="int" name="NGX">    56</i>
   <i type="int" name="NGY">    56</i>
   <i type="int" name="NGZ">   160</i>
   <i type="int" name="NGXF">    96</i>
   <i type="int" name="NGYF">    96</i>
   <i type="int" name="NGZF">   270</i>
   <i type="logical" name="ADDGRID"> F  </i>
  </separator>
  <separator name="ionic" >
   <i type="int" name="NSW">    61</i>
   <i type="int" name="IBRION">     5</i>
   <i type="int" name="MDALGO">     0</i>
   <i type="int" name="ISIF">     1</i>
   <i name="PSTRESS">      0.00000000</i>
   <i name="EDIFFG">      0.00010000</i>
   <i type="int" name="NFREE">     2</i>
   <i name="POTIM">      0.01500000</i>
   <i name="SMASS">     -3.00000000</i>
   <i name="SCALEE">      1.00000000</i>
  </separator>
  <separator name="ionic md" >
   <i name="TEBEG">      0.00010000</i>
   <i name="TEEND">      0.00010000</i>
   <i type="int" name="NBLOCK">     1</i>
   <i type="int" name="KBLOCK">    61</i>
   <i type="int" name="NPACO">   256</i>
   <i name="APACO">     16.00000000</i>
  </separator>
  <separator name="symmetry" >
   <i type="int" name="ISYM">     0</i>
   <i name="SYMPREC">      0.00001000</i>
  </separator>
  <separator name="dos" >
   <i type="int" name="LORBIT">     0</i>
   <v name="RWIGS">     -1.00000000     -1.00000000</v>
   <i type="int" name="NEDOS">   301</i>
   <i name="EMIN">     10.00000000</i>
   <i name="EMAX">    -10.00000000</i>
   <i name="EFERMI">      0.00000000</i>
  </separator>
  <separator name="writing" >
   <i type="int" name="NWRITE">     2</i>
   <i type="logical" name="LWAVE"> F  </i>
   <i type="logical" name="LDOWNSAMPLE"> F  </i>
   <i type="logical" name="LCHARG"> F  </i>
   <i type="logical" name="LPARD"> F  </i>
   <i type="logical" name="LVTOT"> F  </i>
   <i type="logical" name="LVHAR"> F  </i>
   <i type="logical" name="LELF"> F  </i>
   <i type="logical" name="LOPTICS"> F  </i>
   <v name="STM">      0.00000000      0.00000000      0.00000000      0.00000000      0.00000000      0.00000000      0.00000000</v>
  </separator>
  <separator name="performance" >
   <i type="int" name="NPAR">     8</i>
   <i type="int" name="NSIM">     4</i>
   <i type="int" name="NBLK">    -1</i>
   <i type="logical" name="LPLANE"> T  </i>
   <i type="logical" name="LSCALAPACK"> T  </i>
   <i type="logical" name="LSCAAWARE"> F  </i>
   <i type="logical" name="LSCALU"> F  </i>
   <i type="logical" name="LASYNC"> F  </i>
   <i type="logical" name="LORBITALREAL"> F  </i>
  </separator>
  <separator name="miscellaneous" >
   <i type="int" name="IDIOT">     3</i>
   <i type="int" name="ISPECIAL">     0</i>
   <i type="logical" name="LMUSIC"> F  </i>
   <v name="POMASS">     16.00000000     12.01100000</v>
   <v name="DARWINR">      0.00000000      0.00000000</v>
   <v name="DARWINV">      1.00000000      1.00000000</v>
   <i type="logical" name="LCORR"> T  </i>
  </separator>
  <i type="logical" name="GGA_COMPAT"> T  </i>
  <i type="logical" name="LBERRY"> F  </i>
  <i type="int" name="ICORELEVEL">     0</i>
  <i type="logical" name="LDAU"> F  </i>
  <i type="int" name="I_CONSTRAINED_M">     0</i>
  <separator name="electronic exchange-correlation" >
   <i type="string" name="GGA">--</i>
   <i type="int" name="VOSKOWN">     0</i>
   <i type="logical" name="LHFCALC"> F  </i>
   <i type="string" name="PRECFOCK"></i>
   <i type="logical" name="LSYMGRAD"> F  </i>
   <i type="logical" name="LHFONE"> F  </i>
   <i type="logical" name="LRHFCALC"> F  </i>
   <i type="logical" name="LTHOMAS"> F  </i>
   <i type="logical" name="LMODELHF"> F  </i>
   <i name="ENCUT4O">     -1.00000000</i>
   <i type="int" name="EXXOEP">     0</i>
   <i type="int" name="FOURORBIT">     0</i>
   <i name="AEXX">      0.00000000</i>
   <i name="HFALPHA">      0.00000000</i>
   <i name="MCALPHA">      0.00000000</i>
   <i name="ALDAX">      1.00000000</i>
   <i name="AGGAX">      1.00000000</i>
   <i name="ALDAC">      1.00000000</i>
   <i name="AGGAC">      1.00000000</i>
   <i type="int" name="NKREDX">     1</i>
   <i type="int" name="NKREDY">     1</i>
   <i type="int" name="NKREDZ">     1</i>
   <i type="logical" name="SHIFTRED"> F  </i>
   <i type="logical" name="ODDONLY"> F  </i>
   <i type="logical" name="EVENONLY"> F  </i>
   <i type="int" name="LMAXFOCK">     0</i>
   <i type="int" name="NMAXFOCKAE">     0</i>
   <i type="logical" name="LFOCKAEDFT"> F  </i>
   <i name="HFSCREEN">      0.00000000</i>
   <i name="HFSCREENC">      0.00000000</i>
   <i type="int" name="NBANDSGWLOW">     0</i>
  </separator>
  <separator name="vdW DFT" >
   <i type="logical" name="LUSE_VDW"> F  </i>
   <i name="Zab_VDW">     -0.84910000</i>
   <i name="PARAM1">      0.12340000</i>
   <i name="PARAM2">      1.00000000</i>
   <i name="PARAM3">      0.00000000</i>
  </separator>
  <separator name="model GW" >
   <i type="int" name="MODEL_GW">     0</i>
   <i name="MODEL_EPS0">   1027.45022648</i>
   <i name="MODEL_ALPHA">      1.00000000</i>
  </separator>
  <separator name="linear response parameters" >
   <i type="logical" name="LEPSILON"> F  </i>
   <i type="logical" name="LRPA"> F  </i>
   <i type="logical" name="LNABLA"> F  </i>
   <i type="logical" name="LVEL"> F  </i>
   <i type="int" name="KINTER">     0</i>
   <i name="CSHIFT">      0.10000000</i>
   <i name="OMEGAMAX">     -1.00000000</i>
   <i name="DEG_THRESHOLD">      0.00200000</i>
   <i name="RTIME">     -0.10000000</i>
   <i name="WPLASMAI">      0.00000000</i>
   <v name="DFIELD">      0.00000000      0.00000000      0.00000000</v>
   <v name="WPLASMA">      0.00000000      0.00000000      0.00000000      0.00000000      0.00000000      0.00000000      0.00000000      0.00000000      0.00000000</v>
  </separator>
  <separator name="orbital magnetization" >
   <i type="logical" name="NUCIND"> F  </i>
   <v name="MAGPOS">      0.00000000      0.00000000      0.00000000</v>
   <i type="logical" name="LNICSALL"> T  </i>
   <i type="logical" name="ORBITALMAG"> F  </i>
   <i type="logical" name="LMAGBLOCH"> F  </i>
   <i type="logical" name="LCHIMAG"> F  </i>
   <i type="logical" name="LGAUGE"> T  </i>
   <i type="int" name="MAGATOM">     0</i>
   <v name="MAGDIPOL">      0.00000000      0.00000000      0.00000000</v>
   <v name="AVECCONST">      0.00000000      0.00000000      0.00000000</v>
  </separator>
  <separator name="response functions" >
   <i type="logical" name="LADDER"> F  </i>
   <i type="logical" name="LRPAFORCE"> F  </i>
   <i type="logical" name="LFXC"> F  </i>
   <i type="logical" name="LHARTREE"> T  </i>
   <i type="int" name="IBSE">     0</i>
   <v type="int" name="KPOINT">    -1     0     0     0</v>
   <i type="logical" name="LTCTE"> F  </i>
   <i type="logical" name="LTETE"> F  </i>
   <i type="logical" name="LTRIPLET"> F  </i>
   <i type="logical" name="LFXCEPS"> F  </i>
   <i type="logical" name="LFXHEG"> F  </i>
   <i type="int" name="NATURALO">     2</i>
   <i type="logical" name="L2ORDER"> F  </i>
   <i type="logical" name="LMP2LT"> F  </i>
   <i type="logical" name="LUSEW"> F  </i>
   <i name="ENCUTGW">     -2.00000000</i>
   <i name="ENCUTGWSOFT">     -2.00000000</i>
   <i name="ENCUTLF">     -1.00000000</i>
   <i type="int" name="LMAXMP2">    -1</i>
   <i name="SCISSOR">      0.00000000</i>
   <i type="int" name="NOMEGA">     0</i>
   <i type="int" name="NOMEGAR">     0</i>
   <i type="int" name="NBANDSGW">    -1</i>
   <i type="int" name="NBANDSO">    -1</i>
   <i type="int" name="NBANDSV">    -1</i>
   <i type="int" name="NELM">   100</i>
   <i type="int" name="NELMHF">     1</i>
   <i type="int" name="DIM">     3</i>
   <i type="int" name="ANTIRES">     0</i>
   <i name="OMEGAMAX">    -30.00000000</i>
   <i name="OMEGAMIN">    -30.00000000</i>
   <i name="OMEGATL">   -200.00000000</i>
   <i type="int" name="OMEGAGRID">   140</i>
   <i name="CSHIFT">     -0.10000000</i>
   <i type="logical" name="SELFENERGY"> F  </i>
   <i type="logical" name="LSPECTRAL"> F  </i>
   <i type="logical" name="LSPECTRALGW"> F  </i>
   <i type="logical" name="LSINGLES"> F  </i>
   <i type="logical" name="LFERMIGW"> F  </i>
   <i type="logical" name="ODDONLYGW"> F  </i>
   <i type="logical" name="EVENONLYGW"> F  </i>
   <i type="int" name="NKREDLFX">     1</i>
   <i type="int" name="NKREDLFY">     1</i>
   <i type="int" name="NKREDLFZ">     1</i>
   <i type="int" name="MAXMEM">  2800</i>
   <i type="int" name="TELESCOPE">     0</i>
   <i type="int" name="TAUPAR">     1</i>
   <i type="int" name="OMEGAPAR">    -1</i>
   <i name="LAMBDA">      1.00000000</i>
  </separator>
  <separator name="External order field" >
   <i name="OFIELD_KAPPA">      0.00000000</i>
   <v name="OFIELD_K">      0.00000000      0.00000000      0.00000000</v>
   <i name="OFIELD_Q6_NEAR">      0.00000000</i>
   <i name="OFIELD_Q6_FAR">      0.00000000</i>
   <i name="OFIELD_A">      0.00000000</i>
  </separator>
 </parameters>
 <atominfo>
  <atoms>       2 </atoms>
  <types>       2 </types>
  <array name="atoms" >
   <dimension dim="1">ion</dimension>
   <field type="string">element</field>
   <field type="int">atomtype</field>
   <set>
    <rc><c>O </c><c>   1</c></rc>
    <rc><c>C </c><c>   2</c></rc>
   </set>
  </array>
  <array name="atomtypes" >
   <dimension dim="1">type</dimension>
   <field type="int">atomspertype</field>
   <field type="string">element</field>
   <field>mass</field>
   <field>valence</field>
   <field type="string">pseudopotential</field>
   <set>
    <rc><c>   1</c><c>O </c><c>     16.00000000</c><c>      6.00000000</c><c>  PAW_PBE O 08Apr2002                   </c></rc>
    <rc><c>   1</c><c>C </c><c>     12.01100000</c><c>      4.00000000</c><c>  PAW_PBE C 08Apr2002                   </c></rc>
   </set>
  </array>
 </atominfo>
 <structure name="initialpos" >
  <crystal>
   <varray name="basis" >
    <v>      11.21435918       0.00000000       0.00000000 </v>
    <v>       5.60717866       9.71191963       0.00000000 </v>
    <v>       0.00000000       0.00000000      31.44560795 </v>
   </varray>
   <i name="volume">   3424.83408825 </i>
   <varray name="rec_basis" >
    <v>       0.08917139      -0.05148312       0.00000000 </v>
    <v>       0.00000000       0.10296626       0.00000000 </v>
    <v>       0.00000000       0.00000000       0.03180094 </v>
   </varray>
  </crystal>
  <varray name="positions" >
   <v>       0.26720689       0.61862128       0.20910631 </v>
   <v>       0.22934645       0.61786629       0.17538255 </v>
  </varray>
 </structure>
 <calculation>
  <scstep>
   <time name="dav">    0.37    0.37</time>
   <time name="total">    0.40    0.40</time>
   <energy>
    <i name="alphaZ">      0.12758503 </i>
    <i name="ewald">    248.61493590 </i>
    <i name="hartreedc">   -708.67838392 </i>
    <i name="XCdc">     39.19718296 </i>
    <i name="pawpsdc">    455.07152327 </i>
    <i name="pawaedc">   -457.43959975 </i>
    <i name="eentropy">     -0.00312587 </i>
    <i name="bandstr">    -86.33990983 </i>
    <i name="atom">    579.39041991 </i>
    <i name="e_fr_energy">     69.94062770 </i>
    <i name="e_wo_entrp">     69.94375357 </i>
    <i name="e_0_energy">     69.94166966 </i>
   </energy>
  </scstep>
  <scstep>
   <time name="dav">    0.38    0.38</time>
   <time name="total">    0.38    0.38</time>
   <energy>
    <i name="e_fr_energy">     -5.17697733 </i>
    <i name="e_wo_entrp">     -5.17833707 </i>
    <i name="e_0_energy">     -5.17743058 </i>
   </energy>
  </scstep>
  <scstep>
   <time name="dav">    0.39    0.39</time>
   <time name="total">    0.39    0.39</time>
   <energy>
    <i name="e_fr_energy">    -15.37097782 </i>
    <i name="e_wo_entrp">    -15.37684917 </i>
    <i name="e_0_energy">    -15.37293493 </i>
   </energy>
  </scstep>
  <scstep>
   <time name="dav">    0.29    0.29</time>
   <time name="total">    0.29    0.29</time>
   <energy>
    <i name="e_fr_energy">    -15.58928359 </i>
    <i name="e_wo_entrp">    -15.59508159 </i>
    <i name="e_0_energy">    -15.59121626 </i>
   </energy>
  </scstep>
  <scstep>
   <time name="dav">    0.36    0.36</time>
   <time name="total">    0.37    0.37</time>
   <energy>
    <i name="e_fr_energy">    -15.59084260 </i>
    <i name="e_wo_entrp">    -15.59664051 </i>
    <i name="e_0_energy">    -15.59277524 </i>
   </energy>
  </scstep>
  <scstep>
   <time name="diag">    0.07    0.07</time>
   <time name="diis">    0.21    0.21</time>
   <time name="orth">    0.00    0.00</time>
   <time name="total">    0.32    0.32</time>
   <energy>
    <i name="e_fr_energy">    -14.95199584 </i>
    <i name="e_wo_entrp">    -14.95779375 </i>
    <i name="e_0_energy">    -14.95392847 </i>
   </energy>
  </scstep>
  <scstep>
   <time name="diag">    0.07    0.07</time>
   <time name="diis">    0.21    0.21</time>
   <time name="orth">    0.00    0.00</time>
   <time name="total">    0.31    0.31</time>
   <energy>
    <i name="e_fr_energy">    -14.81795972 </i>
    <i name="e_wo_entrp">    -14.82375763 </i>
    <i name="e_0_energy">    -14.81989236 </i>
   </energy>
  </scstep>
  <scstep>
   <time name="diag">    0.07    0.07</time>
   <time name="diis">    0.21    0.21</time>
   <time name="orth">    0.00    0.00</time>
   <time name="total">    0.31    0.31</time>
   <energy>
    <i name="e_fr_energy">    -14.79059704 </i>
    <i name="e_wo_entrp">    -14.79639494 </i>
    <i name="e_0_energy">    -14.79252967 </i>
   </energy>
  </scstep>
  <scstep>
   <time name="diag">    0.07    0.07</time>
   <time name="diis">    0.21    0.21</time>
   <time name="orth">    0.00    0.00</time>
   <time name="total">    0.31    0.31</time>
   <energy>
    <i name="e_fr_energy">    -14.78970173 </i>
    <i name="e_wo_entrp">    -14.79549964 </i>
    <i name="e_0_energy">    -14.79163437 </i>
   </energy>
  </scstep>
  <scstep>
   <time name="diag">    0.06    0.06</time>
   <time name="diis">    0.21    0.21</time>
   <time name="orth">    0.00    0.00</time>
   <time name="total">    0.31    0.32</time>
   <energy>
    <i name="e_fr_energy">    -14.79028623 </i>
    <i name="e_wo_entrp">    -14.79608414 </i>
    <i name="e_0_energy">    -14.79221887 </i>
   </energy>
  </scstep>
  <scstep>
   <time name="diag">    0.06    0.06</time>
   <time name="diis">    0.21    0.21</time>
   <time name="orth">    0.00    0.00</time>
   <time name="total">    0.31    0.32</time>
   <energy>
    <i name="e_fr_energy">    -14.79186911 </i>
    <i name="e_wo_entrp">    -14.79766701 </i>
    <i name="e_0_energy">    -14.79380174 </i>
   </energy>
  </scstep>
  <scstep>
   <time name="diag">    0.06    0.07</time>
   <time name="diis">    0.21    0.21</time>
   <time name="orth">    0.00    0.00</time>
   <time name="total">    0.31    0.31</time>
   <energy>
    <i name="e_fr_energy">    -14.79240205 </i>
    <i name="e_wo_entrp">    -14.79819996 </i>
    <i name="e_0_energy">    -14.79433469 </i>
   </energy>
  </scstep>
  <scstep>
   <time name="diag">    0.06    0.07</time>
   <time name="diis">    0.21    0.21</time>
   <time name="orth">    0.00    0.00</time>
   <time name="total">    0.31    0.31</time>
   <energy>
    <i name="e_fr_energy">    -14.79366100 </i>
    <i name="e_wo_entrp">    -14.79945891 </i>
    <i name="e_0_energy">    -14.79559364 </i>
   </energy>
  </scstep>
  <scstep>
   <time name="diag">    0.06    0.06</time>
   <time name="diis">    0.21    0.21</time>
   <time name="orth">    0.00    0.00</time>
   <time name="total">    0.31    0.31</time>
   <energy>
    <i name="e_fr_energy">    -14.79377501 </i>
    <i name="e_wo_entrp">    -14.79957291 </i>
    <i name="e_0_energy">    -14.79570764 </i>
   </energy>
  </scstep>
  <scstep>
   <time name="diag">    0.06    0.06</time>
   <time name="diis">    0.21    0.21</time>
   <time name="orth">    0.00    0.00</time>
   <time name="total">    0.31    0.31</time>
   <energy>
    <i name="e_fr_energy">    -14.79410864 </i>
    <i name="e_wo_entrp">    -14.79990655 </i>
    <i name="e_0_energy">    -14.79604128 </i>
   </energy>
  </scstep>
  <scstep>
   <time name="diag">    0.06    0.07</time>
   <time name="diis">    0.19    0.19</time>
   <time name="orth">    0.00    0.00</time>
   <time name="total">    0.30    0.30</time>
   <energy>
    <i name="e_fr_energy">    -14.79413772 </i>
    <i name="e_wo_entrp">    -14.79993563 </i>
    <i name="e_0_energy">    -14.79607036 </i>
   </energy>
  </scstep>
  <scstep>
   <time name="diag">    0.06    0.07</time>
   <time name="diis">    0.19    0.20</time>
   <time name="orth">    0.00    0.00</time>
   <time name="total">    0.30    0.30</time>
   <energy>
    <i name="e_fr_energy">    -14.79417963 </i>
    <i name="e_wo_entrp">    -14.79997754 </i>
    <i name="e_0_energy">    -14.79611227 </i>
   </energy>
  </scstep>
  <scstep>
   <time name="diag">    0.06    0.06</time>
   <time name="diis">    0.19    0.19</time>
   <time name="orth">    0.00    0.00</time>
   <time name="total">    0.28    0.28</time>
   <energy>
    <i name="alphaZ">      0.12758503 </i>
    <i name="ewald">    248.61493590 </i>
    <i name="hartreedc">   -729.24991529 </i>
    <i name="XCdc">     40.40498733 </i>
    <i name="pawpsdc">    862.69606857 </i>
    <i name="pawaedc">   -865.14743386 </i>
    <i name="eentropy">      0.00579791 </i>
    <i name="bandstr">   -151.63662727 </i>
    <i name="atom">    579.39041991 </i>
    <i name="e_fr_energy">    -14.79418177 </i>
    <i name="e_wo_entrp">    -14.79997968 </i>
    <i name="e_0_energy">    -14.79611441 </i>
   </energy>
  </scstep>
  <structure>
   <crystal>
    <varray name="basis" >
     <v>      11.21435918       0.00000000       0.00000000 </v>
     <v>       5.60717866       9.71191963       0.00000000 </v>
     <v>       0.00000000       0.00000000      31.44560795 </v>
    </varray>
    <i name="volume">   3424.83408825 </i>
    <varray name="rec_basis" >
     <v>       0.08917139      -0.05148312       0.00000000 </v>
     <v>       0.00000000       0.10296626       0.00000000 </v>
     <v>       0.00000000       0.00000000       0.03180094 </v>
    </varray>
   </crystal>
   <varray name="positions" >
    <v>       0.26720689       0.61862128       0.20910631 </v>
    <v>       0.22934645       0.61786629       0.17538255 </v>
   </varray>
  </structure>
  <varray name="forces" >
   <v>      -0.00786611       0.00372697      -0.03579764 </v>
   <v>       0.00786611      -0.00372697       0.03579764 </v>
  </varray>
  <varray name="stress" >
   <v>      -1.42703836       0.01607383       1.91661687 </v>
   <v>       0.01607383      -2.20477031       0.03280427 </v>
   <v>       1.91661687       0.03280427       2.53349346 </v>
  </varray>
  <energy>
   <i name="e_fr_energy">    -14.79418177 </i>
   <i name="e_wo_entrp">    -14.79611441 </i>
   <i name="e_0_energy">      0.00579791 </i>
  </energy>
  <time name="totalsc">    6.02    6.05</time>
 </calculation>
 <calculation>
  <scstep>
   <time name="dav">    0.33    0.33</time>
   <time name="total">    0.36    0.37</time>
   <energy>
    <i name="alphaZ">      0.12758503 </i>
    <i name="ewald">    247.12374096 </i>
    <i name="hartreedc">   -728.35466713 </i>
    <i name="XCdc">     40.37813578 </i>
    <i name="pawpsdc">    862.71769146 </i>
    <i name="pawaedc">   -865.16908475 </i>
    <i name="eentropy">      0.00579791 </i>
    <i name="bandstr">   -151.01086212 </i>
    <i name="atom">    579.39041991 </i>
    <i name="e_fr_energy">    -14.79124295 </i>
    <i name="e_wo_entrp">    -14.79704086 </i>
    <i name="e_0_energy">    -14.79317559 </i>
   </energy>
  </scstep>
  <scstep>
   <time name="diag">    0.06    0.06</time>
   <time name="diis">    0.21    0.21</time>
   <time name="orth">    0.00    0.00</time>
   <time name="total">    0.31    0.31</time>
   <energy>
    <i name="e_fr_energy">    -14.79226335 </i>
    <i name="e_wo_entrp">    -14.79806125 </i>
    <i name="e_0_energy">    -14.79419598 </i>
   </energy>
  </scstep>
  <scstep>
   <time name="diag">    0.06    0.06</time>
   <time name="diis">    0.21    0.21</time>
   <time name="orth">    0.00    0.00</time>
   <time name="total">    0.31    0.31</time>
   <energy>
    <i name="e_fr_energy">    -14.79220065 </i>
    <i name="e_wo_entrp">    -14.79799856 </i>
    <i name="e_0_energy">    -14.79413329 </i>
   </energy>
  </scstep>
  <scstep>
   <time name="diag">    0.06    0.06</time>
   <time name="diis">    0.21    0.21</time>
   <time name="orth">    0.00    0.00</time>
   <time name="total">    0.31    0.31</time>
   <energy>
    <i name="e_fr_energy">    -14.79226461 </i>
    <i name="e_wo_entrp">    -14.79806252 </i>
    <i name="e_0_energy">    -14.79419725 </i>
   </energy>
  </scstep>
  <scstep>
   <time name="diag">    0.07    0.07</time>
   <time name="diis">    0.20    0.20</time>
   <time name="orth">    0.00    0.00</time>
   <time name="total">    0.29    0.29</time>
   <energy>
    <i name="alphaZ">      0.12758503 </i>
    <i name="ewald">    247.12374096 </i>
    <i name="hartreedc">   -728.03792960 </i>
    <i name="XCdc">     40.36052302 </i>
    <i name="pawpsdc">    853.22696628 </i>
    <i name="pawaedc">   -855.67012249 </i>
    <i name="eentropy">      0.00579791 </i>
    <i name="bandstr">   -151.31924749 </i>
    <i name="atom">    579.39041991 </i>
    <i name="e_fr_energy">    -14.79226649 </i>
    <i name="e_wo_entrp">    -14.79806439 </i>
    <i name="e_0_energy">    -14.79419912 </i>
   </energy>
  </scstep>
  <structure>
   <crystal>
    <varray name="basis" >
     <v>      11.21435918       0.00000000       0.00000000 </v>
     <v>       5.60717866       9.71191963       0.00000000 </v>
     <v>       0.00000000       0.00000000      31.44560795 </v>
    </varray>
    <i name="volume">   3424.83408825 </i>
    <varray name="rec_basis" >
     <v>       0.08917139      -0.05148312       0.00000000 </v>
     <v>       0.00000000       0.10296626       0.00000000 </v>
     <v>       0.00000000       0.00000000       0.03180094 </v>
    </varray>
   </crystal>
   <varray name="positions" >
    <v>       0.26854446       0.61862128       0.20910631 </v>
    <v>       0.22934645       0.61786629       0.17538255 </v>
   </varray>
  </structure>
  <varray name="forces" >
   <v>      -0.25679208      -0.00194898      -0.62672526 </v>
   <v>       0.25679208       0.00194898       0.62672526 </v>
  </varray>
  <varray name="stress" >
   <v>      -1.41418173       0.01527344       1.82134981 </v>
   <v>       0.01527344      -2.17934088       0.03010410 </v>
   <v>       1.82134981       0.03010410       2.17018135 </v>
  </varray>
  <energy>
   <i name="e_fr_energy">    -14.79226649 </i>
   <i name="e_wo_entrp">    -14.79419912 </i>
   <i name="e_0_energy">      0.00579791 </i>
  </energy>
  <time name="totalsc">    1.78    1.79</time>
 </calculation>
 <calculation>
  <scstep>
   <time name="dav">    0.35    0.35</time>
   <time name="total">    0.38    0.39</time>
   <energy>
    <i name="alphaZ">      0.12758503 </i>
    <i name="ewald">    250.07637885 </i>
    <i name="hartreedc">   -729.79734792 </i>
    <i name="XCdc">     40.41334066 </i>
    <i name="pawpsdc">    852.96520461 </i>
    <i name="pawaedc">   -855.40862059 </i>
    <i name="eentropy">      0.00579791 </i>
    <i name="bandstr">   -152.56098821 </i>
    <i name="atom">    579.39041991 </i>
    <i name="e_fr_energy">    -14.78822976 </i>
    <i name="e_wo_entrp">    -14.79402767 </i>
    <i name="e_0_energy">    -14.79016240 </i>
   </energy>
  </scstep>
  <scstep>
   <time name="diag">    0.06    0.06</time>
   <time name="diis">    0.21    0.21</time>
   <time name="orth">    0.00    0.00</time>
   <time name="total">    0.31    0.31</time>
   <energy>
    <i name="e_fr_energy">    -14.79273823 </i>
    <i name="e_wo_entrp">    -14.79853614 </i>
    <i name="e_0_energy">    -14.79467087 </i>
   </energy>
  </scstep>
  <scstep>
   <time name="diag">    0.06    0.06</time>
   <time name="diis">    0.21    0.21</time>
   <time name="orth">    0.00    0.00</time>
   <time name="total">    0.31    0.31</time>
   <energy>
    <i name="e_fr_energy">    -14.79228956 </i>
    <i name="e_wo_entrp">    -14.79808747 </i>
    <i name="e_0_energy">    -14.79422220 </i>
   </energy>
  </scstep>
  <scstep>
   <time name="diag">    0.06    0.06</time>
   <time name="diis">    0.21    0.21</time>
   <time name="orth">    0.00    0.00</time>
   <time name="total">    0.31    0.31</time>
   <energy>
    <i name="e_fr_energy">    -14.79247472 </i>
    <i name="e_wo_entrp">    -14.79827263 </i>
    <i name="e_0_energy">    -14.79440735 </i>
   </energy>
  </scstep>
  <scstep>
   <time name="diag">    0.06    0.06</time>
   <time name="diis">    0.21    0.21</time>
   <time name="orth">    0.00    0.00</time>
   <time name="total">    0.29    0.30</time>
   <energy>
    <i name="alphaZ">      0.12758503 </i>
    <i name="ewald">    250.07637885 </i>
    <i name="hartreedc">   -730.45844720 </i>
    <i name="XCdc">     40.45015146 </i>
    <i name="pawpsdc">    871.65795313 </i>
    <i name="pawaedc">   -874.11789239 </i>
    <i name="eentropy">      0.00579791 </i>
    <i name="bandstr">   -151.92442037 </i>
    <i name="atom">    579.39041991 </i>
    <i name="e_fr_energy">    -14.79247368 </i>
    <i name="e_wo_entrp">    -14.79827159 </i>
    <i name="e_0_energy">    -14.79440632 </i>
   </energy>
  </scstep>
  <structure>
   <crystal>
    <varray name="basis" >
     <v>      11.21435918       0.00000000       0.00000000 </v>
     <v>       5.60717866       9.71191963       0.00000000 </v>
     <v>       0.00000000       0.00000000      31.44560795 </v>
    </varray>
    <i name="volume">   3424.83408825 </i>
    <varray name="rec_basis" >
     <v>       0.08917139      -0.05148312       0.00000000 </v>
     <v>       0.00000000       0.10296626       0.00000000 </v>
     <v>       0.00000000       0.00000000       0.03180094 </v>
    </varray>
   </crystal>
   <varray name="positions" >
    <v>       0.26586932       0.61862128       0.20910631 </v>
    <v>       0.22934645       0.61786629       0.17538255 </v>
   </varray>
  </structure>
  <varray name="forces" >
   <v>       0.22841768       0.00664744       0.57296099 </v>
   <v>      -0.22841768      -0.00664744      -0.57296099 </v>
  </varray>
  <varray name="stress" >
   <v>      -1.45424340       0.01672608       2.00451308 </v>
   <v>       0.01672608      -2.23903743       0.03558092 </v>
   <v>       2.00451308       0.03558092       2.89879366 </v>
  </varray>
  <energy>
   <i name="e_fr_energy">    -14.79247368 </i>
   <i name="e_wo_entrp">    -14.79440632 </i>
   <i name="e_0_energy">      0.00579791 </i>
  </energy>
  <time name="totalsc">    1.80    1.81</time>
 </calculation>
 <calculation>
  <scstep>
   <time name="dav">    0.36    0.36</time>
   <time name="total">    0.39    0.40</time>
   <energy>
    <i name="alphaZ">      0.12758503 </i>
    <i name="ewald">    248.56387389 </i>
    <i name="hartreedc">   -729.49271297 </i>
    <i name="XCdc">     40.41939852 </i>
    <i name="pawpsdc">    872.35750524 </i>
    <i name="pawaedc">   -874.81672680 </i>
    <i name="eentropy">      0.00579791 </i>
    <i name="bandstr">   -151.34712421 </i>
    <i name="atom">    579.39041991 </i>
    <i name="e_fr_energy">    -14.79198349 </i>
    <i name="e_wo_entrp">    -14.79778139 </i>
    <i name="e_0_energy">    -14.79391612 </i>
   </energy>
  </scstep>
  <scstep>
   <time name="diag">    0.06    0.06</time>
   <time name="diis">    0.21    0.21</time>
   <time name="orth">    0.00    0.00</time>
   <time name="total">    0.31    0.31</time>
   <energy>
    <i name="e_fr_energy">    -14.79428436 </i>
    <i name="e_wo_entrp">    -14.80008226 </i>
    <i name="e_0_energy">    -14.79621699 </i>
   </energy>
  </scstep>
  <scstep>
   <time name="diag">    0.06    0.06</time>
   <time name="diis">    0.21    0.21</time>
   <time name="orth">    0.00    0.00</time>
   <time name="total">    0.31    0.31</time>
   <energy>
    <i name="e_fr_energy">    -14.79418744 </i>
    <i name="e_wo_entrp">    -14.79998535 </i>
    <i name="e_0_energy">    -14.79612008 </i>
   </energy>
  </scstep>
  <scstep>
   <time name="diag">    0.06    0.06</time>
   <time name="diis">    0.21    0.21</time>
   <time name="orth">    0.00    0.00</time>
   <time name="total">    0.31    0.31</time>
   <energy>
    <i name="e_fr_energy">    -14.79436393 </i>
    <i name="e_wo_entrp">    -14.80016184 </i>
    <i name="e_0_energy">    -14.79629656 </i>
   </energy>
  </scstep>
  <scstep>
   <time name="diag">    0.06    0.06</time>
   <time name="diis">    0.20    0.20</time>
   <time name="orth">    0.00    0.00</time>
   <time name="total">    0.28    0.28</time>
   <energy>
    <i name="alphaZ">      0.12758503 </i>
    <i name="ewald">    248.56387389 </i>
    <i name="hartreedc">   -729.19466664 </i>
    <i name="XCdc">     40.40287771 </i>
    <i name="pawpsdc">    862.70167550 </i>
    <i name="pawaedc">   -865.15265156 </i>
    <i name="eentropy">      0.00579791 </i>
    <i name="bandstr">   -151.63927229 </i>
    <i name="atom">    579.39041991 </i>
    <i name="e_fr_energy">    -14.79436055 </i>
    <i name="e_wo_entrp">    -14.80015846 </i>
    <i name="e_0_energy">    -14.79629319 </i>
   </energy>
  </scstep>
  <structure>
   <crystal>
    <varray name="basis" >
     <v>      11.21435918       0.00000000       0.00000000 </v>
     <v>       5.60717866       9.71191963       0.00000000 </v>
     <v>       0.00000000       0.00000000      31.44560795 </v>
    </varray>
    <i name="volume">   3424.83408825 </i>
    <varray name="rec_basis" >
     <v>       0.08917139      -0.05148312       0.00000000 </v>
     <v>       0.00000000       0.10296626       0.00000000 </v>
     <v>       0.00000000       0.00000000       0.03180094 </v>
    </varray>
   </crystal>
   <varray name="positions" >
    <v>       0.26643464       0.62016577       0.20910631 </v>
    <v>       0.22934645       0.61786629       0.17538255 </v>
   </varray>
  </structure>
  <varray name="forces" >
   <v>      -0.01923607       0.00161127      -0.06010897 </v>
   <v>       0.01923607      -0.00161127       0.06010897 </v>
  </varray>
  <varray name="stress" >
   <v>      -1.42252044       0.04317613       1.91049260 </v>
   <v>       0.04317613      -2.19601104       0.09988257 </v>
   <v>       1.91049260       0.09988257       2.52445058 </v>
  </varray>
  <energy>
   <i name="e_fr_energy">    -14.79436055 </i>
   <i name="e_wo_entrp">    -14.79629319 </i>
   <i name="e_0_energy">      0.00579791 </i>
  </energy>
  <time name="totalsc">    1.80    1.81</time>
 </calculation>
 <calculation>
  <scstep>
   <time name="dav">    0.33    0.33</time>
   <time name="total">    0.37    0.37</time>
   <energy>
    <i name="alphaZ">      0.12758503 </i>
    <i name="ewald">    248.61435881 </i>
    <i name="hartreedc">   -729.22696028 </i>
    <i name="XCdc">     40.40378711 </i>
    <i name="pawpsdc">    862.43093874 </i>
    <i name="pawaedc">   -864.88213343 </i>
    <i name="eentropy">      0.00579791 </i>
    <i name="bandstr">   -151.65231663 </i>
    <i name="atom">    579.39041991 </i>
    <i name="e_fr_energy">    -14.78852285 </i>
    <i name="e_wo_entrp">    -14.79432076 </i>
    <i name="e_0_energy">    -14.79045549 </i>
   </energy>
  </scstep>
  <scstep>
   <time name="diag">    0.06    0.06</time>
   <time name="diis">    0.21    0.21</time>
   <time name="orth">    0.00    0.00</time>
   <time name="total">    0.31    0.31</time>
   <energy>
    <i name="e_fr_energy">    -14.79415516 </i>
    <i name="e_wo_entrp">    -14.79995306 </i>
    <i name="e_0_energy">    -14.79608779 </i>
   </energy>
  </scstep>
  <scstep>
   <time name="diag">    0.06    0.06</time>
   <time name="diis">    0.21    0.21</time>
   <time name="orth">    0.00    0.00</time>
   <time name="total">    0.31    0.31</time>
   <energy>
    <i name="e_fr_energy">    -14.79379135 </i>
    <i name="e_wo_entrp">    -14.79958926 </i>
    <i name="e_0_energy">    -14.79572399 </i>
   </energy>
  </scstep>
  <scstep>
   <time name="diag">    0.06    0.06</time>
   <time name="diis">    0.21    0.21</time>
   <time name="orth">    0.00    0.00</time>
   <time name="total">    0.31    0.31</time>
   <energy>
    <i name="e_fr_energy">    -14.79400354 </i>
    <i name="e_wo_entrp">    -14.79980145 </i>
    <i name="e_0_energy">    -14.79593618 </i>
   </energy>
  </scstep>
  <scstep>
   <time name="diag">    0.06    0.06</time>
   <time name="diis">    0.20    0.20</time>
   <time name="orth">    0.00    0.00</time>
   <time name="total">    0.28    0.28</time>
   <energy>
    <i name="alphaZ">      0.12758503 </i>
    <i name="ewald">    248.61435881 </i>
    <i name="hartreedc">   -729.25600838 </i>
    <i name="XCdc">     40.40551532 </i>
    <i name="pawpsdc">    862.64898825 </i>
    <i name="pawaedc">   -865.10057843 </i>
    <i name="eentropy">      0.00579791 </i>
    <i name="bandstr">   -151.63007235 </i>
    <i name="atom">    579.39041991 </i>
    <i name="e_fr_energy">    -14.79399394 </i>
    <i name="e_wo_entrp">    -14.79979185 </i>
    <i name="e_0_energy">    -14.79592657 </i>
   </energy>
  </scstep>
  <structure>
   <crystal>
    <varray name="basis" >
     <v>      11.21435918       0.00000000       0.00000000 </v>
     <v>       5.60717866       9.71191963       0.00000000 </v>
     <v>       0.00000000       0.00000000      31.44560795 </v>
    </varray>
    <i name="volume">   3424.83408825 </i>
    <varray name="rec_basis" >
     <v>       0.08917139      -0.05148312       0.00000000 </v>
     <v>       0.00000000       0.10296626       0.00000000 </v>
     <v>       0.00000000       0.00000000       0.03180094 </v>
    </varray>
   </crystal>
   <varray name="positions" >
    <v>       0.26797914       0.61707678       0.20910631 </v>
    <v>       0.22934645       0.61786629       0.17538255 </v>
   </varray>
  </structure>
  <varray name="forces" >
   <v>      -0.00828530       0.00490647      -0.03461875 </v>
   <v>       0.00828530      -0.00490647       0.03461875 </v>
  </varray>
  <varray name="stress" >
   <v>      -1.43050886      -0.01194525       1.91712554 </v>
   <v>      -0.01194525      -2.20825371      -0.03656481 </v>
   <v>       1.91712554      -0.03656481       2.53084637 </v>
  </varray>
  <energy>
   <i name="e_fr_energy">    -14.79399394 </i>
   <i name="e_wo_entrp">    -14.79592657 </i>
   <i name="e_0_energy">      0.00579791 </i>
  </energy>
  <time name="totalsc">    1.77    1.78</time>
 </calculation>
 <calculation>
  <scstep>
   <time name="dav">    0.34    0.34</time>
   <time name="total">    0.37    0.38</time>
   <energy>
    <i name="alphaZ">      0.12758503 </i>
    <i name="ewald">    244.96010728 </i>
    <i name="hartreedc">   -727.02810365 </i>
    <i name="XCdc">     40.33984475 </i>
    <i name="pawpsdc">    862.68668720 </i>
    <i name="pawaedc">   -865.13805467 </i>
    <i name="eentropy">      0.00579791 </i>
    <i name="bandstr">   -150.12627372 </i>
    <i name="atom">    579.39041991 </i>
    <i name="e_fr_energy">    -14.78198996 </i>
    <i name="e_wo_entrp">    -14.78778787 </i>
    <i name="e_0_energy">    -14.78392260 </i>
   </energy>
  </scstep>
  <scstep>
   <time name="diag">    0.06    0.06</time>
   <time name="diis">    0.21    0.21</time>
   <time name="orth">    0.00    0.00</time>
   <time name="total">    0.31    0.31</time>
   <energy>
    <i name="e_fr_energy">    -14.78305321 </i>
    <i name="e_wo_entrp">    -14.78885112 </i>
    <i name="e_0_energy">    -14.78498585 </i>
   </energy>
  </scstep>
  <scstep>
   <time name="diag">    0.07    0.07</time>
   <time name="diis">    0.21    0.21</time>
   <time name="orth">    0.00    0.00</time>
   <time name="total">    0.32    0.32</time>
   <energy>
    <i name="e_fr_energy">    -14.78280521 </i>
    <i name="e_wo_entrp">    -14.78860312 </i>
    <i name="e_0_energy">    -14.78473785 </i>
   </energy>
  </scstep>
  <scstep>
   <time name="diag">    0.06    0.06</time>
   <time name="diis">    0.21    0.21</time>
   <time name="orth">    0.00    0.00</time>
   <time name="total">    0.31    0.32</time>
   <energy>
    <i name="e_fr_energy">    -14.78293625 </i>
    <i name="e_wo_entrp">    -14.78873416 </i>
    <i name="e_0_energy">    -14.78486889 </i>
   </energy>
  </scstep>
  <scstep>
   <time name="diag">    0.06    0.06</time>
   <time name="diis">    0.20    0.20</time>
   <time name="orth">    0.00    0.00</time>
   <time name="total">    0.30    0.30</time>
   <energy>
    <i name="e_fr_energy">    -14.78296195 </i>
    <i name="e_wo_entrp">    -14.78875985 </i>
    <i name="e_0_energy">    -14.78489458 </i>
   </energy>
  </scstep>
  <scstep>
   <time name="diag">    0.07    0.07</time>
   <time name="diis">    0.20    0.20</time>
   <time name="orth">    0.00    0.00</time>
   <time name="total">    0.30    0.30</time>
   <energy>
    <i name="e_fr_energy">    -14.78298064 </i>
    <i name="e_wo_entrp">    -14.78877854 </i>
    <i name="e_0_energy">    -14.78491327 </i>
   </energy>
  </scstep>
  <scstep>
   <time name="diag">    0.06    0.06</time>
   <time name="diis">    0.20    0.20</time>
   <time name="orth">    0.00    0.00</time>
   <time name="total">    0.28    0.29</time>
   <energy>
    <i name="alphaZ">      0.12758503 </i>
    <i name="ewald">    244.96010728 </i>
    <i name="hartreedc">   -726.30409284 </i>
    <i name="XCdc">     40.29944658 </i>
    <i name="pawpsdc">    839.21529489 </i>
    <i name="pawaedc">   -841.64749990 </i>
    <i name="eentropy">      0.00579791 </i>
    <i name="bandstr">   -150.83004944 </i>
    <i name="atom">    579.39041991 </i>
    <i name="e_fr_energy">    -14.78299060 </i>
    <i name="e_wo_entrp">    -14.78878851 </i>
    <i name="e_0_energy">    -14.78492324 </i>
   </energy>
  </scstep>
  <structure>
   <crystal>
    <varray name="basis" >
     <v>      11.21435918       0.00000000       0.00000000 </v>
     <v>       5.60717866       9.71191963       0.00000000 </v>
     <v>       0.00000000       0.00000000      31.44560795 </v>
    </varray>
    <i name="volume">   3424.83408825 </i>
    <varray name="rec_basis" >
     <v>       0.08917139      -0.05148312       0.00000000 </v>
     <v>       0.00000000       0.10296626       0.00000000 </v>
     <v>       0.00000000       0.00000000       0.03180094 </v>
    </varray>
   </crystal>
   <varray name="positions" >
    <v>       0.26720689       0.61862128       0.20958332 </v>
    <v>       0.22934645       0.61786629       0.17538255 </v>
   </varray>
  </structure>
  <varray name="forces" >
   <v>      -0.56447590      -0.00523170      -1.42388826 </v>
   <v>       0.56447590       0.00523170       1.42388826 </v>
  </varray>
  <varray name="stress" >
   <v>      -1.53072910       0.01354798       1.57011645 </v>
   <v>       0.01354798      -2.15946803       0.02693687 </v>
   <v>       1.57011645       0.02693687       1.77746473 </v>
  </varray>
  <energy>
   <i name="e_fr_energy">    -14.78299060 </i>
   <i name="e_wo_entrp">    -14.78492324 </i>
   <i name="e_0_energy">      0.00579791 </i>
  </energy>
  <time name="totalsc">    2.39    2.41</time>
 </calculation>
 <calculation>
  <scstep>
   <time name="dav">    0.34    0.34</time>
   <time name="total">    0.37    0.38</time>
   <energy>
    <i name="alphaZ">      0.12758503 </i>
    <i name="ewald">    252.35145350 </i>
    <i name="hartreedc">   -730.70590378 </i>
    <i name="XCdc">     40.42851300 </i>
    <i name="pawpsdc">    839.24322079 </i>
    <i name="pawaedc">   -841.67539940 </i>
    <i name="eentropy">      0.00579791 </i>
    <i name="bandstr">   -153.94841796 </i>
    <i name="atom">    579.39041991 </i>
    <i name="e_fr_energy">    -14.78273101 </i>
    <i name="e_wo_entrp">    -14.78852892 </i>
    <i name="e_0_energy">    -14.78466364 </i>
   </energy>
  </scstep>
  <scstep>
   <time name="diag">    0.06    0.06</time>
   <time name="diis">    0.21    0.21</time>
   <time name="orth">    0.00    0.00</time>
   <time name="total">    0.31    0.31</time>
   <energy>
    <i name="e_fr_energy">    -14.78484003 </i>
    <i name="e_wo_entrp">    -14.79063794 </i>
    <i name="e_0_energy">    -14.78677266 </i>
   </energy>
  </scstep>
  <scstep>
   <time name="diag">    0.06    0.06</time>
   <time name="diis">    0.21    0.21</time>
   <time name="orth">    0.00    0.00</time>
   <time name="total">    0.31    0.31</time>
   <energy>
    <i name="e_fr_energy">    -14.78308761 </i>
    <i name="e_wo_entrp">    -14.78888552 </i>
    <i name="e_0_energy">    -14.78502025 </i>
   </energy>
  </scstep>
  <scstep>
   <time name="diag">    0.06    0.06</time>
   <time name="diis">    0.21    0.21</time>
   <time name="orth">    0.00    0.00</time>
   <time name="total">    0.31    0.31</time>
   <energy>
    <i name="e_fr_energy">    -14.78333463 </i>
    <i name="e_wo_entrp">    -14.78913254 </i>
    <i name="e_0_energy">    -14.78526727 </i>
   </energy>
  </scstep>
  <scstep>
   <time name="diag">    0.07    0.07</time>
   <time name="diis">    0.21    0.21</time>
   <time name="orth">    0.00    0.00</time>
   <time name="total">    0.31    0.31</time>
   <energy>
    <i name="e_fr_energy">    -14.78336176 </i>
    <i name="e_wo_entrp">    -14.78915967 </i>
    <i name="e_0_energy">    -14.78529440 </i>
   </energy>
  </scstep>
  <scstep>
   <time name="diag">    0.06    0.06</time>
   <time name="diis">    0.21    0.21</time>
   <time name="orth">    0.00    0.00</time>
   <time name="total">    0.31    0.31</time>
   <energy>
    <i name="e_fr_energy">    -14.78338921 </i>
    <i name="e_wo_entrp">    -14.78918712 </i>
    <i name="e_0_energy">    -14.78532185 </i>
   </energy>
  </scstep>
  <scstep>
   <time name="diag">    0.06    0.06</time>
   <time name="diis">    0.20    0.20</time>
   <time name="orth">    0.00    0.00</time>
   <time name="total">    0.30    0.30</time>
   <energy>
    <i name="e_fr_energy">    -14.78342197 </i>
    <i name="e_wo_entrp">    -14.78921988 </i>
    <i name="e_0_energy">    -14.78535460 </i>
   </energy>
  </scstep>
  <scstep>
   <time name="diag">    0.06    0.06</time>
   <time name="diis">    0.20    0.20</time>
   <time name="orth">    0.00    0.00</time>
   <time name="total">    0.30    0.30</time>
   <energy>
    <i name="e_fr_energy">    -14.78346232 </i>
    <i name="e_wo_entrp">    -14.78926022 </i>
    <i name="e_0_energy">    -14.78539495 </i>
   </energy>
  </scstep>
  <scstep>
   <time name="diag">    0.07    0.07</time>
   <time name="diis">    0.19    0.19</time>
   <time name="orth">    0.00    0.00</time>
   <time name="total">    0.29    0.30</time>
   <energy>
    <i name="e_fr_energy">    -14.78350934 </i>
    <i name="e_wo_entrp">    -14.78930725 </i>
    <i name="e_0_energy">    -14.78544198 </i>
   </energy>
  </scstep>
  <scstep>
   <time name="diag">    0.06    0.06</time>
   <time name="diis">    0.19    0.20</time>
   <time name="orth">    0.00    0.00</time>
   <time name="total">    0.29    0.30</time>
   <energy>
    <i name="e_fr_energy">    -14.78352922 </i>
    <i name="e_wo_entrp">    -14.78932713 </i>
    <i name="e_0_energy">    -14.78546186 </i>
   </energy>
  </scstep>
  <scstep>
   <time name="diag">    0.06    0.06</time>
   <time name="diis">    0.20    0.20</time>
   <time name="orth">    0.00    0.00</time>
   <time name="total">    0.29    0.30</time>
   <energy>
    <i name="e_fr_energy">    -14.78354140 </i>
    <i name="e_wo_entrp">    -14.78933931 </i>
    <i name="e_0_energy">    -14.78547404 </i>
   </energy>
  </scstep>
  <scstep>
   <time name="diag">    0.06    0.06</time>
   <time name="diis">    0.20    0.20</time>
   <time name="orth">    0.00    0.00</time>
   <time name="total">    0.28    0.28</time>
   <energy>
    <i name="alphaZ">      0.12758503 </i>
    <i name="ewald">    252.35145350 </i>
    <i name="hartreedc">   -732.25224717 </i>
    <i name="XCdc">     40.51371284 </i>
    <i name="pawpsdc">    887.21319177 </i>
    <i name="pawaedc">   -889.68528136 </i>
    <i name="eentropy">      0.00579791 </i>
    <i name="bandstr">   -152.44817874 </i>
    <i name="atom">    579.39041991 </i>
    <i name="e_fr_energy">    -14.78354633 </i>
    <i name="e_wo_entrp">    -14.78934424 </i>
    <i name="e_0_energy">    -14.78547897 </i>
   </energy>
  </scstep>
  <structure>
   <crystal>
    <varray name="basis" >
     <v>      11.21435918       0.00000000       0.00000000 </v>
     <v>       5.60717866       9.71191963       0.00000000 </v>
     <v>       0.00000000       0.00000000      31.44560795 </v>
    </varray>
    <i name="volume">   3424.83408825 </i>
    <varray name="rec_basis" >
     <v>       0.08917139      -0.05148312       0.00000000 </v>
     <v>       0.00000000       0.10296626       0.00000000 </v>
     <v>       0.00000000       0.00000000       0.03180094 </v>
    </varray>
   </crystal>
   <varray name="positions" >
    <v>       0.26720689       0.61862128       0.20862930 </v>
    <v>       0.22934645       0.61786629       0.17538255 </v>
   </varray>
  </structure>
  <varray name="forces" >
   <v>       0.62011930       0.01394671       1.49310461 </v>
   <v>      -0.62011930      -0.01394671      -1.49310461 </v>
  </varray>
  <varray name="stress" >
   <v>      -1.30863130       0.01889163       2.29348938 </v>
   <v>       0.01889163      -2.25202803       0.03927412 </v>
   <v>       2.29348938       0.03927412       3.33809261 </v>
  </varray>
  <energy>
   <i name="e_fr_energy">    -14.78354633 </i>
   <i name="e_wo_entrp">    -14.78547897 </i>
   <i name="e_0_energy">      0.00579791 </i>
  </energy>
  <time name="totalsc">    3.87    3.89</time>
 </calculation>
 <calculation>
  <scstep>
   <time name="dav">    0.32    0.33</time>
   <time name="total">    0.36    0.36</time>
   <energy>
    <i name="alphaZ">      0.12758503 </i>
    <i name="ewald">    250.07637885 </i>
    <i name="hartreedc">   -730.86345663 </i>
    <i name="XCdc">     40.47139584 </i>
    <i name="pawpsdc">    887.21536237 </i>
    <i name="pawaedc">   -889.68742221 </i>
    <i name="eentropy">      0.00579791 </i>
    <i name="bandstr">   -151.52786657 </i>
    <i name="atom">    579.39041991 </i>
    <i name="e_fr_energy">    -14.79180551 </i>
    <i name="e_wo_entrp">    -14.79760342 </i>
    <i name="e_0_energy">    -14.79373815 </i>
   </energy>
  </scstep>
  <scstep>
   <time name="diag">    0.06    0.06</time>
   <time name="diis">    0.21    0.21</time>
   <time name="orth">    0.00    0.00</time>
   <time name="total">    0.31    0.31</time>
   <energy>
    <i name="e_fr_energy">    -14.79231703 </i>
    <i name="e_wo_entrp">    -14.79811493 </i>
    <i name="e_0_energy">    -14.79424966 </i>
   </energy>
  </scstep>
  <scstep>
   <time name="diag">    0.06    0.06</time>
   <time name="diis">    0.21    0.21</time>
   <time name="orth">    0.00    0.00</time>
   <time name="total">    0.31    0.31</time>
   <energy>
    <i name="e_fr_energy">    -14.79237755 </i>
    <i name="e_wo_entrp">    -14.79817546 </i>
    <i name="e_0_energy">    -14.79431019 </i>
   </energy>
  </scstep>
  <scstep>
   <time name="diag">    0.06    0.06</time>
   <time name="diis">    0.21    0.21</time>
   <time name="orth">    0.00    0.00</time>
   <time name="total">    0.31    0.31</time>
   <energy>
    <i name="e_fr_energy">    -14.79258659 </i>
    <i name="e_wo_entrp">    -14.79838450 </i>
    <i name="e_0_energy">    -14.79451923 </i>
   </energy>
  </scstep>
  <scstep>
   <time name="diag">    0.06    0.06</time>
   <time name="diis">    0.20    0.20</time>
   <time name="orth">    0.00    0.00</time>
   <time name="total">    0.30    0.30</time>
   <energy>
    <i name="e_fr_energy">    -14.79261027 </i>
    <i name="e_wo_entrp">    -14.79840818 </i>
    <i name="e_0_energy">    -14.79454291 </i>
   </energy>
  </scstep>
  <scstep>
   <time name="diag">    0.07    0.07</time>
   <time name="diis">    0.20    0.20</time>
   <time name="orth">    0.00    0.00</time>
   <time name="total">    0.30    0.30</time>
   <energy>
    <i name="e_fr_energy">    -14.79262069 </i>
    <i name="e_wo_entrp">    -14.79841859 </i>
    <i name="e_0_energy">    -14.79455332 </i>
   </energy>
  </scstep>
  <scstep>
   <time name="diag">    0.06    0.06</time>
   <time name="diis">    0.20    0.20</time>
   <time name="orth">    0.00    0.00</time>
   <time name="total">    0.29    0.29</time>
   <energy>
    <i name="alphaZ">      0.12758503 </i>
    <i name="ewald">    250.07637885 </i>
    <i name="hartreedc">   -730.42320891 </i>
    <i name="XCdc">     40.44818773 </i>
    <i name="pawpsdc">    872.27653130 </i>
    <i name="pawaedc">   -874.73600370 </i>
    <i name="eentropy">      0.00579791 </i>
    <i name="bandstr">   -151.95831413 </i>
    <i name="atom">    579.39041991 </i>
    <i name="e_fr_energy">    -14.79262602 </i>
    <i name="e_wo_entrp">    -14.79842393 </i>
    <i name="e_0_energy">    -14.79455866 </i>
   </energy>
  </scstep>
  <structure>
   <crystal>
    <varray name="basis" >
     <v>      11.21435918       0.00000000       0.00000000 </v>
     <v>       5.60717866       9.71191963       0.00000000 </v>
     <v>       0.00000000       0.00000000      31.44560795 </v>
    </varray>
    <i name="volume">   3424.83408825 </i>
    <varray name="rec_basis" >
     <v>       0.08917139      -0.05148312       0.00000000 </v>
     <v>       0.00000000       0.10296626       0.00000000 </v>
     <v>       0.00000000       0.00000000       0.03180094 </v>
    </varray>
   </crystal>
   <varray name="positions" >
    <v>       0.26720689       0.61862128       0.20910631 </v>
    <v>       0.23068402       0.61786629       0.17538255 </v>
   </varray>
  </structure>
  <varray name="forces" >
   <v>       0.22328683       0.00837818       0.56290939 </v>
   <v>      -0.22328683      -0.00837818      -0.56290939 </v>
  </varray>
  <varray name="stress" >
   <v>      -1.44014134       0.01666794       2.00221325 </v>
   <v>       0.01666794      -2.22410834       0.03551858 </v>
   <v>       2.00221325       0.03551858       2.90544548 </v>
  </varray>
  <energy>
   <i name="e_fr_energy">    -14.79262602 </i>
   <i name="e_wo_entrp">    -14.79455866 </i>
   <i name="e_0_energy">      0.00579791 </i>
  </energy>
  <time name="totalsc">    2.35    2.37</time>
 </calculation>
 <calculation>
  <scstep>
   <time name="dav">    0.30    0.30</time>
   <time name="total">    0.33    0.33</time>
   <energy>
    <i name="alphaZ">      0.12758503 </i>
    <i name="ewald">    247.12374096 </i>
    <i name="hartreedc">   -728.69864031 </i>
    <i name="XCdc">     40.39944224 </i>
    <i name="pawpsdc">    872.26284496 </i>
    <i name="pawaedc">   -874.72228252 </i>
    <i name="eentropy">      0.00579791 </i>
    <i name="bandstr">   -150.68213498 </i>
    <i name="atom">    579.39041991 </i>
    <i name="e_fr_energy">    -14.79322681 </i>
    <i name="e_wo_entrp">    -14.79902471 </i>
    <i name="e_0_energy">    -14.79515944 </i>
   </energy>
  </scstep>
  <scstep>
   <time name="diag">    0.06    0.06</time>
   <time name="diis">    0.21    0.21</time>
   <time name="orth">    0.00    0.00</time>
   <time name="total">    0.31    0.31</time>
   <energy>
    <i name="e_fr_energy">    -14.79210994 </i>
    <i name="e_wo_entrp">    -14.79790784 </i>
    <i name="e_0_energy">    -14.79404257 </i>
   </energy>
  </scstep>
  <scstep>
   <time name="diag">    0.06    0.06</time>
   <time name="diis">    0.21    0.21</time>
   <time name="orth">    0.00    0.00</time>
   <time name="total">    0.31    0.31</time>
   <energy>
    <i name="e_fr_energy">    -14.79210265 </i>
    <i name="e_wo_entrp">    -14.79790056 </i>
    <i name="e_0_energy">    -14.79403529 </i>
   </energy>
  </scstep>
  <scstep>
   <time name="diag">    0.06    0.07</time>
   <time name="diis">    0.21    0.21</time>
   <time name="orth">    0.00    0.00</time>
   <time name="total">    0.31    0.31</time>
   <energy>
    <i name="e_fr_energy">    -14.79213673 </i>
    <i name="e_wo_entrp">    -14.79793464 </i>
    <i name="e_0_energy">    -14.79406937 </i>
   </energy>
  </scstep>
  <scstep>
   <time name="diag">    0.06    0.06</time>
   <time name="diis">    0.21    0.21</time>
   <time name="orth">    0.00    0.00</time>
   <time name="total">    0.31    0.31</time>
   <energy>
    <i name="e_fr_energy">    -14.79217647 </i>
    <i name="e_wo_entrp">    -14.79797438 </i>
    <i name="e_0_energy">    -14.79410911 </i>
   </energy>
  </scstep>
  <scstep>
   <time name="diag">    0.06    0.06</time>
   <time name="diis">    0.20    0.20</time>
   <time name="orth">    0.00    0.00</time>
   <time name="total">    0.30    0.30</time>
   <energy>
    <i name="e_fr_energy">    -14.79219435 </i>
    <i name="e_wo_entrp">    -14.79799226 </i>
    <i name="e_0_energy">    -14.79412699 </i>
   </energy>
  </scstep>
  <scstep>
   <time name="diag">    0.06    0.06</time>
   <time name="diis">    0.20    0.20</time>
   <time name="orth">    0.00    0.00</time>
   <time name="total">    0.30    0.30</time>
   <energy>
    <i name="e_fr_energy">    -14.79221373 </i>
    <i name="e_wo_entrp">    -14.79801163 </i>
    <i name="e_0_energy">    -14.79414636 </i>
   </energy>
  </scstep>
  <scstep>
   <time name="diag">    0.06    0.06</time>
   <time name="diis">    0.19    0.19</time>
   <time name="orth">    0.00    0.00</time>
   <time name="total">    0.29    0.29</time>
   <energy>
    <i name="e_fr_energy">    -14.79222408 </i>
    <i name="e_wo_entrp">    -14.79802198 </i>
    <i name="e_0_energy">    -14.79415671 </i>
   </energy>
  </scstep>
  <scstep>
   <time name="diag">    0.06    0.06</time>
   <time name="diis">    0.19    0.19</time>
   <time name="orth">    0.00    0.00</time>
   <time name="total">    0.29    0.29</time>
   <energy>
    <i name="e_fr_energy">    -14.79223762 </i>
    <i name="e_wo_entrp">    -14.79803553 </i>
    <i name="e_0_energy">    -14.79417026 </i>
   </energy>
  </scstep>
  <scstep>
   <time name="diag">    0.06    0.06</time>
   <time name="diis">    0.20    0.20</time>
   <time name="orth">    0.00    0.00</time>
   <time name="total">    0.29    0.29</time>
   <energy>
    <i name="alphaZ">      0.12758503 </i>
    <i name="ewald">    247.12374096 </i>
    <i name="hartreedc">   -728.05055451 </i>
    <i name="XCdc">     40.36121881 </i>
    <i name="pawpsdc">    852.89485689 </i>
    <i name="pawaedc">   -855.33820675 </i>
    <i name="eentropy">      0.00579791 </i>
    <i name="bandstr">   -151.30710141 </i>
    <i name="atom">    579.39041991 </i>
    <i name="e_fr_energy">    -14.79224317 </i>
    <i name="e_wo_entrp">    -14.79804108 </i>
    <i name="e_0_energy">    -14.79417580 </i>
   </energy>
  </scstep>
  <structure>
   <crystal>
    <varray name="basis" >
     <v>      11.21435918       0.00000000       0.00000000 </v>
     <v>       5.60717866       9.71191963       0.00000000 </v>
     <v>       0.00000000       0.00000000      31.44560795 </v>
    </varray>
    <i name="volume">   3424.83408825 </i>
    <varray name="rec_basis" >
     <v>       0.08917139      -0.05148312       0.00000000 </v>
     <v>       0.00000000       0.10296626       0.00000000 </v>
     <v>       0.00000000       0.00000000       0.03180094 </v>
    </varray>
   </crystal>
   <varray name="positions" >
    <v>       0.26720689       0.61862128       0.20910631 </v>
    <v>       0.22800888       0.61786629       0.17538255 </v>
   </varray>
  </structure>
  <varray name="forces" >
   <v>      -0.24965696      -0.00185280      -0.62373693 </v>
   <v>       0.24965696       0.00185280       0.62373693 </v>
  </varray>
  <varray name="stress" >
   <v>      -1.41765032       0.01540803       1.82234724 </v>
   <v>       0.01540803      -2.18299462       0.03012354 </v>
   <v>       1.82234724       0.03012354       2.16979448 </v>
  </varray>
  <energy>
   <i name="e_fr_energy">    -14.79224317 </i>
   <i name="e_wo_entrp">    -14.79417580 </i>
   <i name="e_0_energy">      0.00579791 </i>
  </energy>
  <time name="totalsc">    3.23    3.24</time>
 </calculation>
 <calculation>
  <scstep>
   <time name="dav">    0.30    0.30</time>
   <time name="total">    0.33    0.33</time>
   <energy>
    <i name="alphaZ">      0.12758503 </i>
    <i name="ewald">    248.61435881 </i>
    <i name="hartreedc">   -728.91735877 </i>
    <i name="XCdc">     40.38562191 </i>
    <i name="pawpsdc">    852.89075806 </i>
    <i name="pawaedc">   -855.33410942 </i>
    <i name="eentropy">      0.00579791 </i>
    <i name="bandstr">   -151.95760001 </i>
    <i name="atom">    579.39041991 </i>
    <i name="e_fr_energy">    -14.79452659 </i>
    <i name="e_wo_entrp">    -14.80032449 </i>
    <i name="e_0_energy">    -14.79645922 </i>
   </energy>
  </scstep>
  <scstep>
   <time name="diag">    0.06    0.06</time>
   <time name="diis">    0.21    0.21</time>
   <time name="orth">    0.00    0.00</time>
   <time name="total">    0.31    0.31</time>
   <energy>
    <i name="e_fr_energy">    -14.79406124 </i>
    <i name="e_wo_entrp">    -14.79985914 </i>
    <i name="e_0_energy">    -14.79599387 </i>
   </energy>
  </scstep>
  <scstep>
   <time name="diag">    0.06    0.06</time>
   <time name="diis">    0.21    0.21</time>
   <time name="orth">    0.00    0.00</time>
   <time name="total">    0.31    0.31</time>
   <energy>
    <i name="e_fr_energy">    -14.79415437 </i>
    <i name="e_wo_entrp">    -14.79995227 </i>
    <i name="e_0_energy">    -14.79608700 </i>
   </energy>
  </scstep>
  <scstep>
   <time name="diag">    0.06    0.06</time>
   <time name="diis">    0.21    0.21</time>
   <time name="orth">    0.00    0.00</time>
   <time name="total">    0.31    0.31</time>
   <energy>
    <i name="e_fr_energy">    -14.79418041 </i>
    <i name="e_wo_entrp">    -14.79997832 </i>
    <i name="e_0_energy">    -14.79611305 </i>
   </energy>
  </scstep>
  <scstep>
   <time name="diag">    0.06    0.06</time>
   <time name="diis">    0.20    0.20</time>
   <time name="orth">    0.00    0.00</time>
   <time name="total">    0.30    0.30</time>
   <energy>
    <i name="e_fr_energy">    -14.79419626 </i>
    <i name="e_wo_entrp">    -14.79999416 </i>
    <i name="e_0_energy">    -14.79612889 </i>
   </energy>
  </scstep>
  <scstep>
   <time name="diag">    0.06    0.06</time>
   <time name="diis">    0.19    0.20</time>
   <time name="orth">    0.00    0.00</time>
   <time name="total">    0.28    0.28</time>
   <energy>
    <i name="alphaZ">      0.12758503 </i>
    <i name="ewald">    248.61435881 </i>
    <i name="hartreedc">   -729.24382882 </i>
    <i name="XCdc">     40.40485009 </i>
    <i name="pawpsdc">    862.69670376 </i>
    <i name="pawaedc">   -865.14806973 </i>
    <i name="eentropy">      0.00579791 </i>
    <i name="bandstr">   -151.64202027 </i>
    <i name="atom">    579.39041991 </i>
    <i name="e_fr_energy">    -14.79420333 </i>
    <i name="e_wo_entrp">    -14.80000124 </i>
    <i name="e_0_energy">    -14.79613597 </i>
   </energy>
  </scstep>
  <structure>
   <crystal>
    <varray name="basis" >
     <v>      11.21435918       0.00000000       0.00000000 </v>
     <v>       5.60717866       9.71191963       0.00000000 </v>
     <v>       0.00000000       0.00000000      31.44560795 </v>
    </varray>
    <i name="volume">   3424.83408825 </i>
    <varray name="rec_basis" >
     <v>       0.08917139      -0.05148312       0.00000000 </v>
     <v>       0.00000000       0.10296626       0.00000000 </v>
     <v>       0.00000000       0.00000000       0.03180094 </v>
    </varray>
   </crystal>
   <varray name="positions" >
    <v>       0.26720689       0.61862128       0.20910631 </v>
    <v>       0.22857420       0.61941078       0.17538255 </v>
   </varray>
  </structure>
  <varray name="forces" >
   <v>      -0.00706237       0.00391280      -0.03541687 </v>
   <v>       0.00706237      -0.00391280       0.03541687 </v>
  </varray>
  <varray name="stress" >
   <v>      -1.42660041      -0.01104286       1.91644558 </v>
   <v>      -0.01104286      -2.20422710      -0.03443150 </v>
   <v>       1.91644558      -0.03443150       2.53391757 </v>
  </varray>
  <energy>
   <i name="e_fr_energy">    -14.79420333 </i>
   <i name="e_wo_entrp">    -14.79613597 </i>
   <i name="e_0_energy">      0.00579791 </i>
  </energy>
  <time name="totalsc">    2.03    2.04</time>
 </calculation>
 <calculation>
  <scstep>
   <time name="dav">    0.29    0.29</time>
   <time name="total">    0.32    0.33</time>
   <energy>
    <i name="alphaZ">      0.12758503 </i>
    <i name="ewald">    248.56387389 </i>
    <i name="hartreedc">   -729.20891392 </i>
    <i name="XCdc">     40.40386070 </i>
    <i name="pawpsdc">    862.65775788 </i>
    <i name="pawaedc">   -865.10913063 </i>
    <i name="eentropy">      0.00579791 </i>
    <i name="bandstr">   -151.62584100 </i>
    <i name="atom">    579.39041991 </i>
    <i name="e_fr_energy">    -14.79459024 </i>
    <i name="e_wo_entrp">    -14.80038815 </i>
    <i name="e_0_energy">    -14.79652288 </i>
   </energy>
  </scstep>
  <scstep>
   <time name="diag">    0.06    0.06</time>
   <time name="diis">    0.21    0.21</time>
   <time name="orth">    0.00    0.00</time>
   <time name="total">    0.31    0.31</time>
   <energy>
    <i name="e_fr_energy">    -14.79390717 </i>
    <i name="e_wo_entrp">    -14.79970508 </i>
    <i name="e_0_energy">    -14.79583980 </i>
   </energy>
  </scstep>
  <scstep>
   <time name="diag">    0.06    0.06</time>
   <time name="diis">    0.21    0.21</time>
   <time name="orth">    0.00    0.00</time>
   <time name="total">    0.31    0.31</time>
   <energy>
    <i name="e_fr_energy">    -14.79409723 </i>
    <i name="e_wo_entrp">    -14.79989514 </i>
    <i name="e_0_energy">    -14.79602987 </i>
   </energy>
  </scstep>
  <scstep>
   <time name="diag">    0.06    0.06</time>
   <time name="diis">    0.20    0.20</time>
   <time name="orth">    0.00    0.00</time>
   <time name="total">    0.30    0.31</time>
   <energy>
    <i name="e_fr_energy">    -14.79415111 </i>
    <i name="e_wo_entrp">    -14.79994902 </i>
    <i name="e_0_energy">    -14.79608374 </i>
   </energy>
  </scstep>
  <scstep>
   <time name="diag">    0.06    0.06</time>
   <time name="diis">    0.20    0.20</time>
   <time name="orth">    0.00    0.00</time>
   <time name="total">    0.30    0.30</time>
   <energy>
    <i name="e_fr_energy">    -14.79416506 </i>
    <i name="e_wo_entrp">    -14.79996297 </i>
    <i name="e_0_energy">    -14.79609770 </i>
   </energy>
  </scstep>
  <scstep>
   <time name="diag">    0.06    0.06</time>
   <time name="diis">    0.20    0.20</time>
   <time name="orth">    0.00    0.00</time>
   <time name="total">    0.28    0.28</time>
   <energy>
    <i name="alphaZ">      0.12758503 </i>
    <i name="ewald">    248.56387389 </i>
    <i name="hartreedc">   -729.20776217 </i>
    <i name="XCdc">     40.40359160 </i>
    <i name="pawpsdc">    862.34780653 </i>
    <i name="pawaedc">   -864.79892436 </i>
    <i name="eentropy">      0.00579791 </i>
    <i name="bandstr">   -151.62655920 </i>
    <i name="atom">    579.39041991 </i>
    <i name="e_fr_energy">    -14.79417086 </i>
    <i name="e_wo_entrp">    -14.79996876 </i>
    <i name="e_0_energy">    -14.79610349 </i>
   </energy>
  </scstep>
  <structure>
   <crystal>
    <varray name="basis" >
     <v>      11.21435918       0.00000000       0.00000000 </v>
     <v>       5.60717866       9.71191963       0.00000000 </v>
     <v>       0.00000000       0.00000000      31.44560795 </v>
    </varray>
    <i name="volume">   3424.83408825 </i>
    <varray name="rec_basis" >
     <v>       0.08917139      -0.05148312       0.00000000 </v>
     <v>       0.00000000       0.10296626       0.00000000 </v>
     <v>       0.00000000       0.00000000       0.03180094 </v>
    </varray>
   </crystal>
   <varray name="positions" >
    <v>       0.26720689       0.61862128       0.20910631 </v>
    <v>       0.23011869       0.61632179       0.17538255 </v>
   </varray>
  </structure>
  <varray name="forces" >
   <v>      -0.01607124       0.00674052      -0.05581431 </v>
   <v>       0.01607124      -0.00674052       0.05581431 </v>
  </varray>
  <varray name="stress" >
   <v>      -1.42860958       0.04316422       1.91121053 </v>
   <v>       0.04316422      -2.20220513       0.09988523 </v>
   <v>       1.91121053       0.09988523       2.52073827 </v>
  </varray>
  <energy>
   <i name="e_fr_energy">    -14.79417086 </i>
   <i name="e_wo_entrp">    -14.79610349 </i>
   <i name="e_0_energy">      0.00579791 </i>
  </energy>
  <time name="totalsc">    2.02    2.04</time>
 </calculation>
 <calculation>
  <scstep>
   <time name="dav">    0.29    0.29</time>
   <time name="total">    0.32    0.33</time>
   <energy>
    <i name="alphaZ">      0.12758503 </i>
    <i name="ewald">    252.35145350 </i>
    <i name="hartreedc">   -731.40732770 </i>
    <i name="XCdc">     40.46465603 </i>
    <i name="pawpsdc">    862.35253198 </i>
    <i name="pawaedc">   -864.80363897 </i>
    <i name="eentropy">      0.00579791 </i>
    <i name="bandstr">   -153.26601458 </i>
    <i name="atom">    579.39041991 </i>
    <i name="e_fr_energy">    -14.78453690 </i>
    <i name="e_wo_entrp">    -14.79033480 </i>
    <i name="e_0_energy">    -14.78646953 </i>
   </energy>
  </scstep>
  <scstep>
   <time name="diag">    0.06    0.06</time>
   <time name="diis">    0.21    0.21</time>
   <time name="orth">    0.00    0.00</time>
   <time name="total">    0.31    0.31</time>
   <energy>
    <i name="e_fr_energy">    -14.78338029 </i>
    <i name="e_wo_entrp">    -14.78917819 </i>
    <i name="e_0_energy">    -14.78531292 </i>
   </energy>
  </scstep>
  <scstep>
   <time name="diag">    0.06    0.06</time>
   <time name="diis">    0.21    0.21</time>
   <time name="orth">    0.00    0.00</time>
   <time name="total">    0.31    0.31</time>
   <energy>
    <i name="e_fr_energy">    -14.78325302 </i>
    <i name="e_wo_entrp">    -14.78905092 </i>
    <i name="e_0_energy">    -14.78518565 </i>
   </energy>
  </scstep>
  <scstep>
   <time name="diag">    0.06    0.06</time>
   <time name="diis">    0.21    0.21</time>
   <time name="orth">    0.00    0.00</time>
   <time name="total">    0.31    0.31</time>
   <energy>
    <i name="e_fr_energy">    -14.78322498 </i>
    <i name="e_wo_entrp">    -14.78902288 </i>
    <i name="e_0_energy">    -14.78515761 </i>
   </energy>
  </scstep>
  <scstep>
   <time name="diag">    0.06    0.06</time>
   <time name="diis">    0.21    0.21</time>
   <time name="orth">    0.00    0.00</time>
   <time name="total">    0.31    0.31</time>
   <energy>
    <i name="e_fr_energy">    -14.78323968 </i>
    <i name="e_wo_entrp">    -14.78903759 </i>
    <i name="e_0_energy">    -14.78517232 </i>
   </energy>
  </scstep>
  <scstep>
   <time name="diag">    0.06    0.07</time>
   <time name="diis">    0.20    0.20</time>
   <time name="orth">    0.00    0.00</time>
   <time name="total">    0.30    0.30</time>
   <energy>
    <i name="e_fr_energy">    -14.78325296 </i>
    <i name="e_wo_entrp">    -14.78905086 </i>
    <i name="e_0_energy">    -14.78518559 </i>
   </energy>
  </scstep>
  <scstep>
   <time name="diag">    0.06    0.06</time>
   <time name="diis">    0.20    0.20</time>
   <time name="orth">    0.00    0.00</time>
   <time name="total">    0.29    0.30</time>
   <energy>
    <i name="e_fr_energy">    -14.78327690 </i>
    <i name="e_wo_entrp">    -14.78907481 </i>
    <i name="e_0_energy">    -14.78520954 </i>
   </energy>
  </scstep>
  <scstep>
   <time name="diag">    0.06    0.06</time>
   <time name="diis">    0.20    0.20</time>
   <time name="orth">    0.00    0.00</time>
   <time name="total">    0.30    0.30</time>
   <energy>
    <i name="e_fr_energy">    -14.78329302 </i>
    <i name="e_wo_entrp">    -14.78909093 </i>
    <i name="e_0_energy">    -14.78522566 </i>
   </energy>
  </scstep>
  <scstep>
   <time name="diag">    0.06    0.06</time>
   <time name="diis">    0.20    0.20</time>
   <time name="orth">    0.00    0.00</time>
   <time name="total">    0.30    0.30</time>
   <energy>
    <i name="e_fr_energy">    -14.78331354 </i>
    <i name="e_wo_entrp">    -14.78911145 </i>
    <i name="e_0_energy">    -14.78524618 </i>
   </energy>
  </scstep>
  <scstep>
   <time name="diag">    0.06    0.06</time>
   <time name="diis">    0.19    0.19</time>
   <time name="orth">    0.00    0.00</time>
   <time name="total">    0.28    0.28</time>
   <energy>
    <i name="alphaZ">      0.12758503 </i>
    <i name="ewald">    252.35145350 </i>
    <i name="hartreedc">   -732.24942981 </i>
    <i name="XCdc">     40.51356403 </i>
    <i name="pawpsdc">    887.16399321 </i>
    <i name="pawaedc">   -889.63600927 </i>
    <i name="eentropy">      0.00579791 </i>
    <i name="bandstr">   -152.45069703 </i>
    <i name="atom">    579.39041991 </i>
    <i name="e_fr_energy">    -14.78332253 </i>
    <i name="e_wo_entrp">    -14.78912044 </i>
    <i name="e_0_energy">    -14.78525517 </i>
   </energy>
  </scstep>
  <structure>
   <crystal>
    <varray name="basis" >
     <v>      11.21435918       0.00000000       0.00000000 </v>
     <v>       5.60717866       9.71191963       0.00000000 </v>
     <v>       0.00000000       0.00000000      31.44560795 </v>
    </varray>
    <i name="volume">   3424.83408825 </i>
    <varray name="rec_basis" >
     <v>       0.08917139      -0.05148312       0.00000000 </v>
     <v>       0.00000000       0.10296626       0.00000000 </v>
     <v>       0.00000000       0.00000000       0.03180094 </v>
    </varray>
   </crystal>
   <varray name="positions" >
    <v>       0.26720689       0.61862128       0.20910631 </v>
    <v>       0.22934645       0.61786629       0.17585956 </v>
   </varray>
  </structure>
  <varray name="forces" >
   <v>       0.62477735       0.01356444       1.49425198 </v>
   <v>      -0.62477735      -0.01356444      -1.49425198 </v>
  </varray>
  <varray name="stress" >
   <v>      -1.30860556       0.01888663       2.29357758 </v>
   <v>       0.01888663      -2.25206764       0.03920268 </v>
   <v>       2.29357758       0.03920268       3.33765079 </v>
  </varray>
  <energy>
   <i name="e_fr_energy">    -14.78332253 </i>
   <i name="e_wo_entrp">    -14.78525517 </i>
   <i name="e_0_energy">      0.00579791 </i>
  </energy>
  <time name="totalsc">    3.22    3.23</time>
 </calculation>
 <calculation>
  <scstep>
   <time name="dav">    0.29    0.29</time>
   <time name="total">    0.32    0.33</time>
   <energy>
    <i name="alphaZ">      0.12758503 </i>
    <i name="ewald">    244.96010728 </i>
    <i name="hartreedc">   -727.91607289 </i>
    <i name="XCdc">     40.39374639 </i>
    <i name="pawpsdc">    887.16142274 </i>
    <i name="pawaedc">   -889.63347956 </i>
    <i name="eentropy">      0.00579791 </i>
    <i name="bandstr">   -149.27742009 </i>
    <i name="atom">    579.39041991 </i>
    <i name="e_fr_energy">    -14.78789330 </i>
    <i name="e_wo_entrp">    -14.79369120 </i>
    <i name="e_0_energy">    -14.78982593 </i>
   </energy>
  </scstep>
  <scstep>
   <time name="diag">    0.06    0.06</time>
   <time name="diis">    0.21    0.21</time>
   <time name="orth">    0.01    0.01</time>
   <time name="total">    0.31    0.31</time>
   <energy>
    <i name="e_fr_energy">    -14.78354995 </i>
    <i name="e_wo_entrp">    -14.78934786 </i>
    <i name="e_0_energy">    -14.78548259 </i>
   </energy>
  </scstep>
  <scstep>
   <time name="diag">    0.06    0.06</time>
   <time name="diis">    0.21    0.21</time>
   <time name="orth">    0.00    0.00</time>
   <time name="total">    0.31    0.31</time>
   <energy>
    <i name="e_fr_energy">    -14.78289143 </i>
    <i name="e_wo_entrp">    -14.78868934 </i>
    <i name="e_0_energy">    -14.78482406 </i>
   </energy>
  </scstep>
  <scstep>
   <time name="diag">    0.06    0.06</time>
   <time name="diis">    0.21    0.21</time>
   <time name="orth">    0.00    0.00</time>
   <time name="total">    0.31    0.31</time>
   <energy>
    <i name="e_fr_energy">    -14.78284338 </i>
    <i name="e_wo_entrp">    -14.78864129 </i>
    <i name="e_0_energy">    -14.78477602 </i>
   </energy>
  </scstep>
  <scstep>
[...]
       <r>    0.6382    0.0000 </r>
       <r>    0.6635    0.0000 </r>
       <r>    0.9487    0.0000 </r>
       <r>    0.9608    0.0000 </r>
       <r>    0.9867    0.0000 </r>
      </set>
      <set comment="kpoint 5">
       <r>  -29.0493    1.0000 </r>
       <r>  -14.0572    1.0000 </r>
       <r>  -11.6194    1.0000 </r>
       <r>  -11.6188    1.0000 </r>
       <r>   -9.0733    1.0000 </r>
       <r>   -2.2790    0.0000 </r>
       <r>   -2.2783    0.0000 </r>
       <r>   -0.1405    0.0000 </r>
       <r>    0.1587    0.0000 </r>
       <r>    0.1824    0.0000 </r>
       <r>    0.5230    0.0000 </r>
       <r>    0.6375    0.0000 </r>
       <r>    0.6591    0.0000 </r>
       <r>    0.9518    0.0000 </r>
       <r>    0.9649    0.0000 </r>
       <r>    0.9832    0.0000 </r>
      </set>
      <set comment="kpoint 6">
       <r>  -29.0493    1.0000 </r>
       <r>  -14.0572    1.0000 </r>
       <r>  -11.6195    1.0000 </r>
       <r>  -11.6189    1.0000 </r>
       <r>   -9.0733    1.0001 </r>
       <r>   -2.2794    0.0000 </r>
       <r>   -2.2787    0.0000 </r>
       <r>    0.0364    0.0000 </r>
       <r>    0.3478    0.0000 </r>
       <r>    0.3678    0.0000 </r>
       <r>    0.4315    0.0000 </r>
       <r>    0.5354    0.0000 </r>
       <r>    0.6791    0.0000 </r>
       <r>    0.7508    0.0000 </r>
       <r>    0.7684    0.0000 </r>
       <r>    0.8299    0.0000 </r>
      </set>
      <set comment="kpoint 7">
       <r>  -29.0493    1.0000 </r>
       <r>  -14.0572    1.0000 </r>
       <r>  -11.6195    1.0000 </r>
       <r>  -11.6189    1.0000 </r>
       <r>   -9.0733    1.0000 </r>
       <r>   -2.2792    0.0000 </r>
       <r>   -2.2789    0.0000 </r>
       <r>    0.0377    0.0000 </r>
       <r>    0.3485    0.0000 </r>
       <r>    0.3686    0.0000 </r>
       <r>    0.4393    0.0000 </r>
       <r>    0.5255    0.0000 </r>
       <r>    0.6800    0.0000 </r>
       <r>    0.7518    0.0000 </r>
       <r>    0.7670    0.0000 </r>
       <r>    0.8279    0.0000 </r>
      </set>
      <set comment="kpoint 8">
       <r>  -29.0493    1.0000 </r>
       <r>  -14.0572    1.0000 </r>
       <r>  -11.6194    1.0000 </r>
       <r>  -11.6188    1.0000 </r>
       <r>   -9.0732    0.9999 </r>
       <r>   -2.2795    0.0000 </r>
       <r>   -2.2787    0.0000 </r>
       <r>    0.0745    0.0000 </r>
       <r>    0.2498    0.0000 </r>
       <r>    0.4313    0.0000 </r>
       <r>    0.4507    0.0000 </r>
       <r>    0.4690    0.0000 </r>
       <r>    0.5243    0.0000 </r>
       <r>    0.7657    0.0000 </r>
       <r>    0.8815    0.0000 </r>
       <r>    0.9232    0.0000 </r>
      </set>
      <set comment="kpoint 9">
       <r>  -29.0493    1.0000 </r>
       <r>  -14.0572    1.0000 </r>
       <r>  -11.6195    1.0000 </r>
       <r>  -11.6189    1.0000 </r>
       <r>   -9.0733    1.0000 </r>
       <r>   -2.2795    0.0000 </r>
       <r>   -2.2785    0.0000 </r>
       <r>    0.0388    0.0000 </r>
       <r>    0.3482    0.0000 </r>
       <r>    0.3683    0.0000 </r>
       <r>    0.4336    0.0000 </r>
       <r>    0.5305    0.0000 </r>
       <r>    0.6798    0.0000 </r>
       <r>    0.7510    0.0000 </r>
       <r>    0.7679    0.0000 </r>
       <r>    0.8264    0.0000 </r>
      </set>
      <set comment="kpoint 10">
       <r>  -29.0493    1.0000 </r>
       <r>  -14.0572    1.0000 </r>
       <r>  -11.6195    1.0000 </r>
       <r>  -11.6189    1.0000 </r>
       <r>   -9.0733    0.9999 </r>
       <r>   -2.2795    0.0000 </r>
       <r>   -2.2785    0.0000 </r>
       <r>    0.0751    0.0000 </r>
       <r>    0.2397    0.0000 </r>
       <r>    0.4328    0.0000 </r>
       <r>    0.4515    0.0000 </r>
       <r>    0.4676    0.0000 </r>
       <r>    0.5230    0.0000 </r>
       <r>    0.7744    0.0000 </r>
       <r>    0.8816    0.0000 </r>
       <r>    0.9215    0.0000 </r>
      </set>
     </set>
    </set>
   </array>
  </eigenvalues>
  <separator name="orbital magnetization" >
   <v name="MAGDIPOLOUT">      0.00000000      0.00000000      0.00000000</v>
  </separator>
  <dos>
   <i name="efermi">     -8.98910469 </i>
   <total>
    <array>
     <dimension dim="1">gridpoints</dimension>
     <dimension dim="2">spin</dimension>
     <field>energy</field>
     <field>total</field>
     <field>integrated</field>
     <set>
      <set comment="spin 1">
       <r>   -30.5655     0.0000     0.0000 </r>
       <r>   -30.4543     0.0000     0.0000 </r>
       <r>   -30.3431     0.0000     0.0000 </r>
       <r>   -30.2319     0.0000     0.0000 </r>
       <r>   -30.1207     0.0000     0.0000 </r>
       <r>   -30.0096     0.0000     0.0000 </r>
       <r>   -29.8984    -0.0000    -0.0000 </r>
       <r>   -29.7872    -0.0000    -0.0000 </r>
       <r>   -29.6760    -0.0000    -0.0000 </r>
       <r>   -29.5648    -0.0000    -0.0000 </r>
       <r>   -29.4537    -0.0000    -0.0000 </r>
       <r>   -29.3425    -0.0024    -0.0003 </r>
       <r>   -29.2313    -0.2435    -0.0273 </r>
       <r>   -29.1201     0.9160     0.0745 </r>
       <r>   -29.0090    13.9473     1.6251 </r>
       <r>   -28.8978     3.8569     2.0539 </r>
       <r>   -28.7866    -0.4735     2.0013 </r>
       <r>   -28.6754    -0.0116     2.0000 </r>
       <r>   -28.5642    -0.0000     2.0000 </r>
       <r>   -28.4531    -0.0000     2.0000 </r>
       <r>   -28.3419    -0.0000     2.0000 </r>
       <r>   -28.2307     0.0000     2.0000 </r>
       <r>   -28.1195     0.0000     2.0000 </r>
       <r>   -28.0084     0.0000     2.0000 </r>
       <r>   -27.8972     0.0000     2.0000 </r>
       <r>   -27.7860     0.0000     2.0000 </r>
       <r>   -27.6748     0.0000     2.0000 </r>
       <r>   -27.5636     0.0000     2.0000 </r>
       <r>   -27.4525     0.0000     2.0000 </r>
       <r>   -27.3413     0.0000     2.0000 </r>
       <r>   -27.2301     0.0000     2.0000 </r>
       <r>   -27.1189     0.0000     2.0000 </r>
       <r>   -27.0077     0.0000     2.0000 </r>
       <r>   -26.8966     0.0000     2.0000 </r>
       <r>   -26.7854     0.0000     2.0000 </r>
       <r>   -26.6742     0.0000     2.0000 </r>
       <r>   -26.5630     0.0000     2.0000 </r>
       <r>   -26.4519     0.0000     2.0000 </r>
       <r>   -26.3407     0.0000     2.0000 </r>
       <r>   -26.2295     0.0000     2.0000 </r>
       <r>   -26.1183     0.0000     2.0000 </r>
       <r>   -26.0071     0.0000     2.0000 </r>
       <r>   -25.8960     0.0000     2.0000 </r>
       <r>   -25.7848     0.0000     2.0000 </r>
       <r>   -25.6736     0.0000     2.0000 </r>
       <r>   -25.5624     0.0000     2.0000 </r>
       <r>   -25.4513     0.0000     2.0000 </r>
       <r>   -25.3401     0.0000     2.0000 </r>
       <r>   -25.2289     0.0000     2.0000 </r>
       <r>   -25.1177     0.0000     2.0000 </r>
       <r>   -25.0065     0.0000     2.0000 </r>
       <r>   -24.8954     0.0000     2.0000 </r>
       <r>   -24.7842     0.0000     2.0000 </r>
       <r>   -24.6730     0.0000     2.0000 </r>
       <r>   -24.5618     0.0000     2.0000 </r>
       <r>   -24.4506     0.0000     2.0000 </r>
       <r>   -24.3395     0.0000     2.0000 </r>
       <r>   -24.2283     0.0000     2.0000 </r>
       <r>   -24.1171     0.0000     2.0000 </r>
       <r>   -24.0059     0.0000     2.0000 </r>
       <r>   -23.8948     0.0000     2.0000 </r>
       <r>   -23.7836     0.0000     2.0000 </r>
       <r>   -23.6724     0.0000     2.0000 </r>
       <r>   -23.5612     0.0000     2.0000 </r>
       <r>   -23.4500     0.0000     2.0000 </r>
       <r>   -23.3389     0.0000     2.0000 </r>
       <r>   -23.2277     0.0000     2.0000 </r>
       <r>   -23.1165     0.0000     2.0000 </r>
       <r>   -23.0053     0.0000     2.0000 </r>
       <r>   -22.8942     0.0000     2.0000 </r>
       <r>   -22.7830     0.0000     2.0000 </r>
       <r>   -22.6718     0.0000     2.0000 </r>
       <r>   -22.5606     0.0000     2.0000 </r>
       <r>   -22.4494     0.0000     2.0000 </r>
       <r>   -22.3383     0.0000     2.0000 </r>
       <r>   -22.2271     0.0000     2.0000 </r>
       <r>   -22.1159     0.0000     2.0000 </r>
       <r>   -22.0047     0.0000     2.0000 </r>
       <r>   -21.8935     0.0000     2.0000 </r>
       <r>   -21.7824     0.0000     2.0000 </r>
       <r>   -21.6712     0.0000     2.0000 </r>
       <r>   -21.5600     0.0000     2.0000 </r>
       <r>   -21.4488     0.0000     2.0000 </r>
       <r>   -21.3377     0.0000     2.0000 </r>
       <r>   -21.2265     0.0000     2.0000 </r>
       <r>   -21.1153     0.0000     2.0000 </r>
       <r>   -21.0041     0.0000     2.0000 </r>
       <r>   -20.8929     0.0000     2.0000 </r>
       <r>   -20.7818     0.0000     2.0000 </r>
       <r>   -20.6706     0.0000     2.0000 </r>
       <r>   -20.5594     0.0000     2.0000 </r>
       <r>   -20.4482     0.0000     2.0000 </r>
       <r>   -20.3371     0.0000     2.0000 </r>
       <r>   -20.2259     0.0000     2.0000 </r>
       <r>   -20.1147     0.0000     2.0000 </r>
       <r>   -20.0035     0.0000     2.0000 </r>
       <r>   -19.8923     0.0000     2.0000 </r>
       <r>   -19.7812     0.0000     2.0000 </r>
       <r>   -19.6700     0.0000     2.0000 </r>
       <r>   -19.5588     0.0000     2.0000 </r>
       <r>   -19.4476     0.0000     2.0000 </r>
       <r>   -19.3365     0.0000     2.0000 </r>
       <r>   -19.2253     0.0000     2.0000 </r>
       <r>   -19.1141     0.0000     2.0000 </r>
       <r>   -19.0029     0.0000     2.0000 </r>
       <r>   -18.8917     0.0000     2.0000 </r>
       <r>   -18.7806     0.0000     2.0000 </r>
       <r>   -18.6694     0.0000     2.0000 </r>
       <r>   -18.5582     0.0000     2.0000 </r>
       <r>   -18.4470     0.0000     2.0000 </r>
       <r>   -18.3358     0.0000     2.0000 </r>
       <r>   -18.2247     0.0000     2.0000 </r>
       <r>   -18.1135     0.0000     2.0000 </r>
       <r>   -18.0023     0.0000     2.0000 </r>
       <r>   -17.8911     0.0000     2.0000 </r>
       <r>   -17.7800     0.0000     2.0000 </r>
       <r>   -17.6688     0.0000     2.0000 </r>
       <r>   -17.5576     0.0000     2.0000 </r>
       <r>   -17.4464     0.0000     2.0000 </r>
       <r>   -17.3352     0.0000     2.0000 </r>
       <r>   -17.2241     0.0000     2.0000 </r>
       <r>   -17.1129     0.0000     2.0000 </r>
       <r>   -17.0017     0.0000     2.0000 </r>
       <r>   -16.8905     0.0000     2.0000 </r>
       <r>   -16.7794     0.0000     2.0000 </r>
       <r>   -16.6682     0.0000     2.0000 </r>
       <r>   -16.5570     0.0000     2.0000 </r>
       <r>   -16.4458     0.0000     2.0000 </r>
       <r>   -16.3346     0.0000     2.0000 </r>
       <r>   -16.2235     0.0000     2.0000 </r>
       <r>   -16.1123     0.0000     2.0000 </r>
       <r>   -16.0011     0.0000     2.0000 </r>
       <r>   -15.8899     0.0000     2.0000 </r>
       <r>   -15.7787     0.0000     2.0000 </r>
       <r>   -15.6676     0.0000     2.0000 </r>
       <r>   -15.5564     0.0000     2.0000 </r>
       <r>   -15.4452     0.0000     2.0000 </r>
       <r>   -15.3340     0.0000     2.0000 </r>
       <r>   -15.2229     0.0000     2.0000 </r>
       <r>   -15.1117     0.0000     2.0000 </r>
       <r>   -15.0005     0.0000     2.0000 </r>
       <r>   -14.8893    -0.0000     2.0000 </r>
       <r>   -14.7781    -0.0000     2.0000 </r>
       <r>   -14.6670    -0.0000     2.0000 </r>
       <r>   -14.5558    -0.0000     2.0000 </r>
       <r>   -14.4446    -0.0000     2.0000 </r>
       <r>   -14.3334    -0.0060     1.9993 </r>
       <r>   -14.2223    -0.3674     1.9585 </r>
       <r>   -14.1111     2.3419     2.2189 </r>
       <r>   -13.9999    14.3585     3.8152 </r>
       <r>   -13.8887     2.0077     4.0384 </r>
       <r>   -13.7775    -0.3405     4.0006 </r>
       <r>   -13.6664    -0.0050     4.0000 </r>
       <r>   -13.5552    -0.0000     4.0000 </r>
       <r>   -13.4440    -0.0000     4.0000 </r>
       <r>   -13.3328     0.0000     4.0000 </r>
       <r>   -13.2216     0.0000     4.0000 </r>
       <r>   -13.1105     0.0000     4.0000 </r>
       <r>   -12.9993     0.0000     4.0000 </r>
       <r>   -12.8881     0.0000     4.0000 </r>
       <r>   -12.7769     0.0000     4.0000 </r>
       <r>   -12.6658     0.0000     4.0000 </r>
       <r>   -12.5546     0.0000     4.0000 </r>
       <r>   -12.4434    -0.0000     4.0000 </r>
       <r>   -12.3322    -0.0000     4.0000 </r>
       <r>   -12.2210    -0.0000     4.0000 </r>
       <r>   -12.1099    -0.0000     4.0000 </r>
       <r>   -11.9987    -0.0000     4.0000 </r>
       <r>   -11.8875    -0.0176     3.9980 </r>
       <r>   -11.7763    -0.8594     3.9025 </r>
       <r>   -11.6652     6.3718     4.6109 </r>
       <r>   -11.5540    28.3945     7.7678 </r>
       <r>   -11.4428     2.6598     8.0635 </r>
       <r>   -11.3316    -0.5642     8.0007 </r>
       <r>   -11.2204    -0.0066     8.0000 </r>
       <r>   -11.1093    -0.0000     8.0000 </r>
       <r>   -10.9981    -0.0000     8.0000 </r>
       <r>   -10.8869     0.0000     8.0000 </r>
       <r>   -10.7757     0.0000     8.0000 </r>
       <r>   -10.6645     0.0000     8.0000 </r>
       <r>   -10.5534     0.0000     8.0000 </r>
       <r>   -10.4422     0.0000     8.0000 </r>
       <r>   -10.3310     0.0000     8.0000 </r>
       <r>   -10.2198     0.0000     8.0000 </r>
       <r>   -10.1087     0.0000     8.0000 </r>
       <r>    -9.9975     0.0000     8.0000 </r>
       <r>    -9.8863    -0.0000     8.0000 </r>
       <r>    -9.7751    -0.0000     8.0000 </r>
       <r>    -9.6639    -0.0000     8.0000 </r>
       <r>    -9.5528    -0.0000     8.0000 </r>
       <r>    -9.4416    -0.0000     8.0000 </r>
       <r>    -9.3304    -0.0150     7.9983 </r>
       <r>    -9.2192    -0.5141     7.9412 </r>
       <r>    -9.1081     4.5697     8.4492 </r>
       <r>    -8.9969    13.5944     9.9606 </r>
       <r>    -8.8857     0.5645    10.0234 </r>
       <r>    -8.7745    -0.2084    10.0002 </r>
       <r>    -8.6633    -0.0018    10.0000 </r>
       <r>    -8.5522    -0.0000    10.0000 </r>
       <r>    -8.4410    -0.0000    10.0000 </r>
       <r>    -8.3298     0.0000    10.0000 </r>
       <r>    -8.2186     0.0000    10.0000 </r>
       <r>    -8.1074     0.0000    10.0000 </r>
       <r>    -7.9963     0.0000    10.0000 </r>
       <r>    -7.8851     0.0000    10.0000 </r>
       <r>    -7.7739     0.0000    10.0000 </r>
       <r>    -7.6627     0.0000    10.0000 </r>
       <r>    -7.5516     0.0000    10.0000 </r>
       <r>    -7.4404     0.0000    10.0000 </r>
       <r>    -7.3292     0.0000    10.0000 </r>
       <r>    -7.2180     0.0000    10.0000 </r>
       <r>    -7.1068     0.0000    10.0000 </r>
       <r>    -6.9957     0.0000    10.0000 </r>
       <r>    -6.8845     0.0000    10.0000 </r>
       <r>    -6.7733     0.0000    10.0000 </r>
       <r>    -6.6621     0.0000    10.0000 </r>
       <r>    -6.5510     0.0000    10.0000 </r>
       <r>    -6.4398     0.0000    10.0000 </r>
       <r>    -6.3286     0.0000    10.0000 </r>
       <r>    -6.2174     0.0000    10.0000 </r>
       <r>    -6.1062     0.0000    10.0000 </r>
       <r>    -5.9951     0.0000    10.0000 </r>
       <r>    -5.8839     0.0000    10.0000 </r>
       <r>    -5.7727     0.0000    10.0000 </r>
       <r>    -5.6615     0.0000    10.0000 </r>
       <r>    -5.5504     0.0000    10.0000 </r>
       <r>    -5.4392     0.0000    10.0000 </r>
       <r>    -5.3280     0.0000    10.0000 </r>
       <r>    -5.2168     0.0000    10.0000 </r>
       <r>    -5.1056     0.0000    10.0000 </r>
       <r>    -4.9945     0.0000    10.0000 </r>
       <r>    -4.8833     0.0000    10.0000 </r>
       <r>    -4.7721     0.0000    10.0000 </r>
       <r>    -4.6609     0.0000    10.0000 </r>
       <r>    -4.5497     0.0000    10.0000 </r>
       <r>    -4.4386     0.0000    10.0000 </r>
       <r>    -4.3274     0.0000    10.0000 </r>
       <r>    -4.2162     0.0000    10.0000 </r>
       <r>    -4.1050     0.0000    10.0000 </r>
       <r>    -3.9939     0.0000    10.0000 </r>
       <r>    -3.8827     0.0000    10.0000 </r>
       <r>    -3.7715     0.0000    10.0000 </r>
       <r>    -3.6603     0.0000    10.0000 </r>
       <r>    -3.5491     0.0000    10.0000 </r>
       <r>    -3.4380     0.0000    10.0000 </r>
       <r>    -3.3268     0.0000    10.0000 </r>
       <r>    -3.2156     0.0000    10.0000 </r>
       <r>    -3.1044    -0.0000    10.0000 </r>
       <r>    -2.9933    -0.0000    10.0000 </r>
       <r>    -2.8821    -0.0000    10.0000 </r>
       <r>    -2.7709    -0.0000    10.0000 </r>
       <r>    -2.6597    -0.0000    10.0000 </r>
       <r>    -2.5485    -0.0165     9.9982 </r>
       <r>    -2.4374    -0.8385     9.9049 </r>
       <r>    -2.3262     6.0740    10.5802 </r>
       <r>    -2.2150    28.4792    13.7465 </r>
       <r>    -2.1038     2.8704    14.0656 </r>
       <r>    -1.9926    -0.5831    14.0008 </r>
       <r>    -1.8815    -0.0071    14.0000 </r>
       <r>    -1.7703    -0.0000    14.0000 </r>
       <r>    -1.6591    -0.0000    14.0000 </r>
       <r>    -1.5479     0.0000    14.0000 </r>
       <r>    -1.4368     0.0000    14.0000 </r>
       <r>    -1.3256     0.0000    14.0000 </r>
       <r>    -1.2144     0.0000    14.0000 </r>
       <r>    -1.1032    -0.0000    14.0000 </r>
       <r>    -0.9920    -0.0000    14.0000 </r>
       <r>    -0.8809    -0.0000    14.0000 </r>
       <r>    -0.7697    -0.0000    14.0000 </r>
       <r>    -0.6585    -0.0000    14.0000 </r>
       <r>    -0.5473    -0.0001    14.0000 </r>
       <r>    -0.4362    -0.0095    13.9989 </r>
       <r>    -0.3250    -0.0883    13.9891 </r>
       <r>    -0.2138     1.0462    14.1054 </r>
       <r>    -0.1026     5.2714    14.6915 </r>
       <r>     0.0086     3.6819    15.1008 </r>
       <r>     0.1197    11.0915    16.3340 </r>
       <r>     0.2309    12.5267    17.7267 </r>
       <r>     0.3421     8.2418    18.6430 </r>
       <r>     0.4533    19.7975    20.8440 </r>
       <r>     0.5645    21.5620    23.2412 </r>
       <r>     0.6756    16.4784    25.0733 </r>
       <r>     0.7868    20.4379    27.3455 </r>
       <r>     0.8980    14.9446    29.0071 </r>
       <r>     1.0092    18.9237    31.1110 </r>
       <r>     1.1203     5.3087    31.7012 </r>
       <r>     1.2315     1.7009    31.8903 </r>
       <r>     1.3427     0.9788    31.9991 </r>
       <r>     1.4539     0.0241    32.0018 </r>
       <r>     1.5651    -0.0158    32.0000 </r>
       <r>     1.6762    -0.0002    32.0000 </r>
       <r>     1.7874    -0.0000    32.0000 </r>
       <r>     1.8986    -0.0000    32.0000 </r>
       <r>     2.0098     0.0000    32.0000 </r>
       <r>     2.1209     0.0000    32.0000 </r>
       <r>     2.2321     0.0000    32.0000 </r>
       <r>     2.3433     0.0000    32.0000 </r>
       <r>     2.4545     0.0000    32.0000 </r>
       <r>     2.5657     0.0000    32.0000 </r>
       <r>     2.6768     0.0000    32.0000 </r>
       <r>     2.7880     0.0000    32.0000 </r>
      </set>
     </set>
    </array>
   </total>
  </dos>
 </calculation>
 <structure name="finalpos" >
  <crystal>
   <varray name="basis" >
    <v>      11.21435918       0.00000000       0.00000000 </v>
    <v>       5.60717866       9.71191963       0.00000000 </v>
    <v>       0.00000000       0.00000000      31.44560795 </v>
   </varray>
   <i name="volume">   3424.83408825 </i>
   <varray name="rec_basis" >
    <v>       0.08917139      -0.05148312       0.00000000 </v>
    <v>       0.00000000       0.10296626       0.00000000 </v>
    <v>       0.00000000       0.00000000       0.03180094 </v>
   </varray>
  </crystal>
  <varray name="positions" >
   <v>       0.26720689       0.61862128       0.20910631 </v>
   <v>       0.22934645       0.61786629       0.17490554 </v>
  </varray>
 </structure>
</modeling>
