Pt                                      
           1
    11.214359    0.000000    0.000000
     5.607179    9.711920    0.000000
     0.000000    0.000000   31.445608
   O    C 
   1   1
Direct configuration=     1
   0.26720689  0.61862128  0.20910631
   0.22934645  0.61786629  0.17538255
Direct configuration=     2
   0.26854446  0.61862128  0.20910631
   0.22934645  0.61786629  0.17538255
Direct configuration=     3
   0.26586932  0.61862128  0.20910631
   0.22934645  0.61786629  0.17538255
Direct configuration=     4
   0.26643464  0.62016577  0.20910631
   0.22934645  0.61786629  0.17538255
Direct configuration=     5
   0.26797914  0.61707678  0.20910631
   0.22934645  0.61786629  0.17538255
Direct configuration=     6
   0.26720689  0.61862128  0.20958332
   0.22934645  0.61786629  0.17538255
Direct configuration=     7
   0.26720689  0.61862128  0.20862930
   0.22934645  0.61786629  0.17538255
Direct configuration=     8
   0.26720689  0.61862128  0.20910631
   0.23068402  0.61786629  0.17538255
Direct configuration=     9
   0.26720689  0.61862128  0.20910631
   0.22800888  0.61786629  0.17538255
Direct configuration=    10
   0.26720689  0.61862128  0.20910631
   0.22857420  0.61941078  0.17538255
Direct configuration=    11
   0.26720689  0.61862128  0.20910631
   0.23011869  0.61632179  0.17538255
Direct configuration=    12
   0.26720689  0.61862128  0.20910631
   0.22934645  0.61786629  0.17585956
Direct configuration=    13
   0.26720689  0.61862128  0.20910631
   0.22934645  0.61786629  0.17490554
