   4   4   0   0
  0.1564269E+02  0.3970000E-09  0.3970000E-09  0.3970000E-09  0.5000000E-15
   1.0000000000000000E-004
  CAR 
 Slab                                    
     27.59923316     -0.45784457  301     10.76470531      1.00000000
     -0.458  0.0000E+00  0.0000E+00  0.0000E+00  0.0000E+00
     -0.364  0.0000E+00  0.0000E+00  0.0000E+00  0.0000E+00
     -0.271  0.0000E+00  0.0000E+00  0.0000E+00  0.0000E+00
     -0.177  0.0000E+00  0.0000E+00  0.0000E+00  0.0000E+00
     -0.084  0.0000E+00  0.0000E+00  0.0000E+00  0.0000E+00
      0.010  0.0000E+00  0.0000E+00  0.0000E+00  0.0000E+00
      0.103  0.0000E+00  0.0000E+00  0.0000E+00  0.0000E+00
      0.197  0.0000E+00  0.0000E+00  0.0000E+00  0.0000E+00
      0.290  0.0000E+00  0.0000E+00  0.0000E+00  0.0000E+00
      0.384 -0.1055E-34 -0.2459E-38 -0.9868E-36 -0.2300E-39
      0.477 -0.3075E-22 -0.4256E-25 -0.2875E-23 -0.3980E-26
      0.571 -0.7267E-13 -0.6076E-15 -0.6796E-14 -0.5682E-16
      0.664 -0.1311E-06 -0.6900E-08 -0.1226E-07 -0.6453E-09
      0.758 -0.6970E-04 -0.3999E-04 -0.6531E-05 -0.3740E-05
      0.851  0.1956E-02  0.1370E-02  0.1764E-03  0.1244E-03
      0.945  0.9536E-04  0.6623E-03  0.1854E-03  0.1863E-03
      1.039 -0.1823E-05 -0.1219E-04  0.1852E-03  0.1852E-03
      1.132 -0.7613E-11 -0.3500E-09  0.1852E-03  0.1852E-03
      1.226  0.0000E+00 -0.6155E-17  0.1852E-03  0.1852E-03
      1.319  0.0000E+00  0.0000E+00  0.1852E-03  0.1852E-03
      1.413  0.0000E+00  0.0000E+00  0.1852E-03  0.1852E-03
      1.506  0.0000E+00  0.0000E+00  0.1852E-03  0.1852E-03
      1.600  0.0000E+00  0.0000E+00  0.1852E-03  0.1852E-03
      1.693  0.0000E+00  0.0000E+00  0.1852E-03  0.1852E-03
      1.787 -0.9799E-30 -0.2682E-33  0.1852E-03  0.1852E-03
      1.880 -0.3202E-18 -0.5688E-21  0.1852E-03  0.1852E-03
      1.974 -0.8254E-10 -0.9751E-12  0.1852E-03  0.1852E-03
      2.067 -0.1496E-04 -0.1264E-05  0.1838E-03  0.1851E-03
      2.161  0.9087E-03 -0.3899E-03  0.2688E-03  0.1486E-03
      2.254  0.1141E-01  0.1204E-01  0.1335E-02  0.1274E-02
      2.348 -0.4186E-03  0.2406E-03  0.1296E-02  0.1297E-02
      2.441 -0.5259E-06 -0.7375E-05  0.1296E-02  0.1296E-02
      2.535 -0.2221E-12 -0.2199E-10  0.1296E-02  0.1296E-02
      2.628  0.0000E+00  0.0000E+00  0.1296E-02  0.1296E-02
      2.722  0.0000E+00  0.0000E+00  0.1296E-02  0.1296E-02
      2.815  0.0000E+00  0.0000E+00  0.1296E-02  0.1296E-02
      2.909 -0.6993E-29 -0.3104E-33  0.1296E-02  0.1296E-02
      3.003 -0.1692E-17 -0.7429E-21  0.1296E-02  0.1296E-02
      3.096 -0.3213E-09 -0.1439E-11  0.1296E-02  0.1296E-02
      3.190 -0.4222E-04 -0.2115E-05  0.1292E-02  0.1296E-02
      3.283  0.2734E-02 -0.8095E-03  0.1548E-02  0.1220E-02
      3.377  0.2177E-01  0.2388E-01  0.3584E-02  0.3453E-02
      3.470  0.4713E-02  0.1991E-03  0.4025E-02  0.3472E-02
      3.564  0.1074E-01  0.1421E-01  0.5029E-02  0.4801E-02
      3.657 -0.3081E-03  0.2163E-02  0.5000E-02  0.5003E-02
      3.751 -0.1601E-06 -0.3319E-04  0.5000E-02  0.5000E-02
      3.844 -0.1879E-03 -0.2144E-07  0.4982E-02  0.5000E-02
      3.938  0.5247E-02 -0.1208E-03  0.5473E-02  0.4989E-02
      4.031  0.8928E-03  0.4125E-02  0.5557E-02  0.5375E-02
      4.125 -0.3062E-03  0.1962E-02  0.5528E-02  0.5558E-02
      4.218  0.1225E-01  0.4347E-03  0.6673E-02  0.5599E-02
      4.312 -0.1041E-02  0.1183E-01  0.6576E-02  0.6705E-02
      4.405  0.4433E-01 -0.2090E-02  0.1072E-01  0.6510E-02
      4.499  0.1027E-01  0.4827E-01  0.1168E-01  0.1102E-01
      4.592 -0.1694E-03  0.6982E-02  0.1167E-01  0.1168E-01
      4.686 -0.7117E-05 -0.1098E-03  0.1167E-01  0.1167E-01
      4.779 -0.3189E-03 -0.9323E-06  0.1164E-01  0.1167E-01
      4.873  0.2484E-01 -0.8318E-03  0.1396E-01  0.1159E-01
      4.967  0.1140E-01  0.2217E-01  0.1502E-01  0.1366E-01
      5.060  0.7117E-02  0.1370E-01  0.1569E-01  0.1494E-01
      5.154  0.1476E-01  0.2254E-02  0.1707E-01  0.1515E-01
      5.247  0.6405E-01  0.2266E-01  0.2306E-01  0.1727E-01
      5.341  0.9025E-02  0.5785E-01  0.2390E-01  0.2268E-01
      5.434 -0.1723E-03  0.1328E-01  0.2389E-01  0.2393E-01
      5.528 -0.1360E-02 -0.3928E-03  0.2376E-01  0.2389E-01
      5.621  0.3964E-01 -0.5523E-03  0.2747E-01  0.2384E-01
      5.715  0.9392E-02  0.2402E-01  0.2835E-01  0.2608E-01
      5.808 -0.1485E-03  0.2464E-01  0.2833E-01  0.2839E-01
      5.902 -0.4322E-04 -0.5763E-03  0.2833E-01  0.2833E-01
      5.995  0.2803E-02 -0.2064E-04  0.2859E-01  0.2833E-01
      6.089  0.2179E-01  0.1031E-02  0.3063E-01  0.2843E-01
      6.182 -0.1761E-02  0.2358E-01  0.3046E-01  0.3063E-01
      6.276  0.3661E-01 -0.1600E-02  0.3389E-01  0.3048E-01
      6.369 -0.1580E-02  0.2533E-01  0.3374E-01  0.3285E-01
      6.463  0.4211E-01  0.1103E-01  0.3768E-01  0.3388E-01
      6.556  0.4772E-01  0.1407E-01  0.4214E-01  0.3520E-01
      6.650  0.6901E-02  0.5615E-01  0.4279E-01  0.4045E-01
      6.743 -0.1073E-03  0.2554E-01  0.4278E-01  0.4284E-01
      6.837 -0.1338E-08 -0.6553E-03  0.4278E-01  0.4278E-01
      6.931 -0.2056E-04 -0.5710E-07  0.4278E-01  0.4278E-01
      7.024  0.1241E-02 -0.2412E-06  0.4289E-01  0.4278E-01
      7.118  0.7248E-02 -0.2184E-03  0.4357E-01  0.4276E-01
      7.211  0.2715E-01  0.5675E-02  0.4611E-01  0.4329E-01
      7.305  0.2732E-01  0.2406E-01  0.4866E-01  0.4554E-01
      7.398  0.2301E-01  0.2447E-01  0.5082E-01  0.4783E-01
      7.492 -0.1183E-02  0.2318E-01  0.5070E-01  0.5000E-01
      7.585  0.1043E-01  0.7591E-02  0.5168E-01  0.5070E-01
      7.679  0.5095E-01  0.1415E-01  0.5644E-01  0.5203E-01
      7.772  0.6731E-01  0.4695E-01  0.6274E-01  0.5642E-01
      7.866  0.3112E-01  0.1883E-01  0.6565E-01  0.5818E-01
      7.959 -0.9626E-03  0.8098E-01  0.6556E-01  0.6575E-01
      8.053  0.2439E-01 -0.2396E-02  0.6784E-01  0.6553E-01
      8.146 -0.8881E-03  0.1218E-01  0.6776E-01  0.6667E-01
      8.240  0.7067E-02  0.1213E-01  0.6842E-01  0.6780E-01
      8.333  0.2920E-01 -0.7512E-03  0.7115E-01  0.6773E-01
      8.427 -0.4106E-03  0.1502E-01  0.7111E-01  0.6914E-01
      8.520 -0.7098E-05  0.2187E-01  0.7111E-01  0.7118E-01
      8.614 -0.2580E-03 -0.7795E-03  0.7109E-01  0.7111E-01
      8.707  0.8545E-02 -0.4081E-03  0.7189E-01  0.7107E-01
      8.801  0.2828E-02  0.1109E-01  0.7215E-01  0.7211E-01
      8.895  0.2358E-01  0.1203E-02  0.7436E-01  0.7222E-01
      8.988  0.9437E-03  0.7955E-03  0.7444E-01  0.7230E-01
      9.082  0.3733E-03  0.2379E-01  0.7448E-01  0.7452E-01
      9.175  0.3383E-01 -0.8724E-03  0.7764E-01  0.7444E-01
      9.269  0.1710E-01  0.5101E-03  0.7924E-01  0.7449E-01
      9.362  0.1666E-01  0.5013E-01  0.8080E-01  0.7918E-01
      9.456  0.1480E-01  0.8974E-04  0.8218E-01  0.7918E-01
      9.549  0.4344E-02  0.2324E-01  0.8259E-01  0.8136E-01
      9.643  0.6630E-02  0.1047E-01  0.8321E-01  0.8234E-01
      9.736  0.6707E-01  0.1748E-02  0.8948E-01  0.8250E-01
      9.830 -0.3519E-03  0.4097E-01  0.8945E-01  0.8633E-01
      9.923  0.3071E-01  0.3185E-01  0.9232E-01  0.8931E-01
     10.017  0.2036E-02  0.8072E-02  0.9251E-01  0.9006E-01
     10.110  0.2132E-01  0.2352E-01  0.9451E-01  0.9226E-01
     10.204  0.6148E-02  0.1173E-01  0.9508E-01  0.9336E-01
     10.297  0.2985E-01  0.1151E-01  0.9787E-01  0.9444E-01
     10.391 -0.1027E-02  0.1494E-01  0.9778E-01  0.9584E-01
     10.484 -0.5537E-06  0.2134E-01  0.9778E-01  0.9783E-01
     10.578 -0.1918E-03 -0.5760E-03  0.9776E-01  0.9778E-01
     10.671  0.3702E-02 -0.2064E-06  0.9811E-01  0.9778E-01
     10.765  0.4434E-01 -0.1916E-03  0.1023E+00  0.9776E-01
     10.859  0.5696E-02  0.3630E-02  0.1028E+00  0.9810E-01
     10.952 -0.8928E-04  0.4878E-01  0.1028E+00  0.1027E+00
     11.046 -0.1241E-02  0.1277E-02  0.1027E+00  0.1028E+00
     11.139  0.3375E-01 -0.4101E-04  0.1058E+00  0.1028E+00
     11.233  0.3187E-02 -0.7418E-03  0.1061E+00  0.1027E+00
     11.326 -0.5088E-04  0.3682E-01  0.1061E+00  0.1062E+00
     11.420 -0.3177E-09 -0.4160E-03  0.1061E+00  0.1061E+00
     11.513  0.0000E+00 -0.1114E-04  0.1061E+00  0.1061E+00
     11.607  0.0000E+00 -0.1929E-10  0.1061E+00  0.1061E+00
     11.700  0.0000E+00  0.0000E+00  0.1061E+00  0.1061E+00
     11.794  0.0000E+00  0.0000E+00  0.1061E+00  0.1061E+00
     11.887  0.0000E+00  0.0000E+00  0.1061E+00  0.1061E+00
     11.981  0.0000E+00  0.0000E+00  0.1061E+00  0.1061E+00
     12.074 -0.1977E-43  0.0000E+00  0.1061E+00  0.1061E+00
     12.168 -0.4444E-29 -0.1043E-29  0.1061E+00  0.1061E+00
     12.261 -0.8714E-18 -0.2853E-18  0.1061E+00  0.1061E+00
     12.355 -0.1432E-09 -0.6136E-10  0.1061E+00  0.1061E+00
     12.448 -0.2363E-04 -0.9191E-05  0.1061E+00  0.1061E+00
     12.542 -0.1856E-03  0.5855E-03  0.1061E+00  0.1062E+00
     12.635  0.5435E-01  0.4829E-02  0.1112E+00  0.1066E+00
     12.729 -0.6597E-03  0.2828E-01  0.1111E+00  0.1093E+00
     12.823 -0.1575E-04  0.2019E-01  0.1111E+00  0.1112E+00
     12.916 -0.1214E-07 -0.4179E-03  0.1111E+00  0.1111E+00
     13.010 -0.3446E-03 -0.2350E-07  0.1111E+00  0.1111E+00
     13.103  0.1779E-01 -0.2220E-03  0.1127E+00  0.1111E+00
     13.197  0.3094E-01  0.1299E-01  0.1156E+00  0.1123E+00
     13.290 -0.8583E-03  0.3588E-01  0.1156E+00  0.1157E+00
     13.384 -0.1192E-06 -0.1130E-02  0.1156E+00  0.1156E+00
     13.477 -0.8705E-14 -0.2785E-06  0.1156E+00  0.1156E+00
     13.571  0.0000E+00 -0.3320E-13  0.1156E+00  0.1156E+00
     13.664  0.0000E+00  0.0000E+00  0.1156E+00  0.1156E+00
     13.758  0.0000E+00  0.0000E+00  0.1156E+00  0.1156E+00
     13.851  0.0000E+00  0.0000E+00  0.1156E+00  0.1156E+00
     13.945  0.0000E+00  0.0000E+00  0.1156E+00  0.1156E+00
     14.038  0.0000E+00  0.0000E+00  0.1156E+00  0.1156E+00
     14.132  0.0000E+00  0.0000E+00  0.1156E+00  0.1156E+00
     14.225  0.0000E+00  0.0000E+00  0.1156E+00  0.1156E+00
     14.319  0.0000E+00  0.0000E+00  0.1156E+00  0.1156E+00
     14.412  0.0000E+00  0.0000E+00  0.1156E+00  0.1156E+00
     14.506 -0.1662E-33  0.0000E+00  0.1156E+00  0.1156E+00
     14.599 -0.4564E-21 -0.7179E-32  0.1156E+00  0.1156E+00
     14.693 -0.1015E-11 -0.8532E-20  0.1156E+00  0.1156E+00
     14.787 -0.1722E-05 -0.8140E-11  0.1156E+00  0.1156E+00
     14.880 -0.8309E-03 -0.5765E-05  0.1155E+00  0.1156E+00
     14.974  0.2361E-01 -0.4573E-03  0.1177E+00  0.1155E+00
     15.067  0.1007E-02  0.2457E-01  0.1178E+00  0.1178E+00
     15.161 -0.2034E-04 -0.3344E-03  0.1178E+00  0.1178E+00
     15.254 -0.7972E-10 -0.6899E-05  0.1178E+00  0.1178E+00
     15.348  0.0000E+00 -0.1118E-10  0.1178E+00  0.1178E+00
     15.441  0.0000E+00  0.0000E+00  0.1178E+00  0.1178E+00
     15.535  0.0000E+00  0.0000E+00  0.1178E+00  0.1178E+00
     15.628  0.0000E+00  0.0000E+00  0.1178E+00  0.1178E+00
     15.722  0.0000E+00  0.0000E+00  0.1178E+00  0.1178E+00
     15.815  0.0000E+00  0.0000E+00  0.1178E+00  0.1178E+00
     15.909  0.0000E+00  0.0000E+00  0.1178E+00  0.1178E+00
     16.002  0.0000E+00  0.0000E+00  0.1178E+00  0.1178E+00
     16.096  0.0000E+00  0.0000E+00  0.1178E+00  0.1178E+00
     16.189 -0.6255E-34  0.0000E+00  0.1178E+00  0.1178E+00
     16.283 -0.2126E-21 -0.6112E-29  0.1178E+00  0.1178E+00
     16.376 -0.5872E-12 -0.1527E-17  0.1178E+00  0.1178E+00
     16.470 -0.1243E-05 -0.2995E-09  0.1178E+00  0.1178E+00
     16.563 -0.8411E-03 -0.4073E-04  0.1177E+00  0.1178E+00
     16.657  0.2310E-01  0.2629E-02  0.1199E+00  0.1180E+00
     16.750  0.1526E-02  0.2198E-01  0.1200E+00  0.1201E+00
     16.844 -0.4914E-04 -0.8063E-03  0.1200E+00  0.1200E+00
     16.938  0.2885E-03 -0.2805E-04  0.1200E+00  0.1200E+00
     17.031  0.4867E-01  0.7509E-03  0.1246E+00  0.1201E+00
     17.125 -0.1408E-02  0.4833E-01  0.1244E+00  0.1246E+00
     17.218 -0.6769E-05 -0.1522E-02  0.1244E+00  0.1244E+00
     17.312 -0.6436E-11 -0.5515E-05  0.1244E+00  0.1244E+00
     17.405 -0.3690E-41 -0.4524E-11  0.1244E+00  0.1244E+00
     17.499 -0.3918E-27 -0.8957E-41  0.1244E+00  0.1244E+00
     17.592 -0.3450E-16 -0.7984E-27  0.1244E+00  0.1244E+00
     17.686 -0.2529E-08 -0.5992E-16  0.1244E+00  0.1244E+00
     17.779 -0.1160E-03 -0.3616E-08  0.1244E+00  0.1244E+00
     17.873  0.6714E-02 -0.1367E-03  0.1251E+00  0.1244E+00
     17.966  0.1772E-01  0.7574E-02  0.1267E+00  0.1251E+00
     18.060 -0.5516E-03  0.1682E-01  0.1267E+00  0.1267E+00
     18.153 -0.1286E-06 -0.5009E-03  0.1267E+00  0.1267E+00
     18.247 -0.1463E-13 -0.9444E-07  0.1267E+00  0.1267E+00
     18.340  0.0000E+00 -0.8969E-14  0.1267E+00  0.1267E+00
     18.434  0.0000E+00  0.0000E+00  0.1267E+00  0.1267E+00
     18.527  0.0000E+00  0.0000E+00  0.1267E+00  0.1267E+00
     18.621  0.0000E+00  0.0000E+00  0.1267E+00  0.1267E+00
     18.714  0.0000E+00  0.0000E+00  0.1267E+00  0.1267E+00
     18.808 -0.1025E-36  0.0000E+00  0.1267E+00  0.1267E+00
     18.902 -0.1024E-23 -0.4089E-37  0.1267E+00  0.1267E+00
     18.995 -0.8415E-14 -0.6628E-24  0.1267E+00  0.1267E+00
     19.089 -0.5618E-07 -0.8899E-14  0.1267E+00  0.1267E+00
     19.182 -0.2656E-03 -0.9627E-07  0.1266E+00  0.1267E+00
     19.276  0.1106E-01 -0.5560E-03  0.1277E+00  0.1266E+00
     19.369  0.1951E-01  0.1946E-01  0.1295E+00  0.1284E+00
     19.463 -0.6006E-03  0.1102E-01  0.1294E+00  0.1295E+00
     19.556 -0.1519E-06 -0.2236E-03  0.1294E+00  0.1294E+00
     19.650 -0.1900E-13 -0.1180E-07  0.1294E+00  0.1294E+00
     19.743 -0.1540E-35 -0.4867E-15  0.1294E+00  0.1294E+00
     19.837 -0.1162E-22 -0.7905E-34  0.1294E+00  0.1294E+00
     19.930 -0.7179E-13 -0.2553E-21  0.1294E+00  0.1294E+00
     20.024 -0.3468E-06 -0.6697E-12  0.1294E+00  0.1294E+00
     20.117 -0.7154E-03 -0.1345E-05  0.1294E+00  0.1294E+00
     20.211  0.2039E-01 -0.8410E-03  0.1313E+00  0.1294E+00
     20.304  0.4151E-02  0.2323E-01  0.1317E+00  0.1315E+00
     20.398 -0.6454E-04  0.1395E-02  0.1317E+00  0.1317E+00
     20.491 -0.1041E-04 -0.2489E-04  0.1317E+00  0.1317E+00
     20.585  0.4107E-04 -0.5389E-03  0.1317E+00  0.1316E+00
     20.678  0.2440E-01  0.1750E-01  0.1340E+00  0.1333E+00
     20.772 -0.7950E-03  0.6881E-02  0.1339E+00  0.1339E+00
     20.866  0.1635E-01  0.2681E-02  0.1354E+00  0.1341E+00
     20.959 -0.3742E-03  0.1356E-01  0.1354E+00  0.1354E+00
     21.053 -0.4583E-05 -0.4746E-03  0.1354E+00  0.1354E+00
     21.146 -0.1614E-02 -0.6576E-04  0.1352E+00  0.1354E+00
     21.240  0.4399E-01  0.4082E-02  0.1393E+00  0.1357E+00
     21.333  0.5228E-02  0.4517E-01  0.1398E+00  0.1400E+00
     21.427 -0.8104E-04 -0.1662E-02  0.1398E+00  0.1398E+00
     21.520 -0.5929E-09 -0.1862E-05  0.1398E+00  0.1398E+00
     21.614 -0.5160E-31 -0.7250E-12  0.1398E+00  0.1398E+00
     21.707 -0.3206E-19 -0.9379E-22  0.1398E+00  0.1398E+00
     21.801 -0.1586E-10 -0.2549E-12  0.1398E+00  0.1398E+00
     21.894 -0.5679E-05 -0.5309E-06  0.1398E+00  0.1398E+00
     21.988  0.1543E-03 -0.3505E-03  0.1398E+00  0.1398E+00
     22.081  0.1007E-01  0.9644E-02  0.1408E+00  0.1407E+00
     22.175 -0.3167E-03  0.6186E-03  0.1407E+00  0.1407E+00
     22.268 -0.1154E-05 -0.1077E-04  0.1407E+00  0.1407E+00
     22.362 -0.3694E-04 -0.1568E-07  0.1407E+00  0.1407E+00
     22.455  0.2355E-02 -0.2579E-03  0.1410E+00  0.1407E+00
     22.549  0.2226E-01  0.1152E-01  0.1430E+00  0.1418E+00
     22.642 -0.8191E-03  0.1281E-01  0.1430E+00  0.1430E+00
     22.736 -0.7901E-06 -0.3078E-03  0.1430E+00  0.1430E+00
     22.830 -0.2763E-12 -0.2432E-07  0.1430E+00  0.1430E+00
     22.923 -0.6928E-17 -0.1082E-14  0.1430E+00  0.1430E+00
     23.017 -0.1047E-08 -0.4328E-13  0.1430E+00  0.1430E+00
     23.110 -0.1082E-03 -0.3290E-06  0.1430E+00  0.1430E+00
     23.204  0.7038E-02 -0.1186E-02  0.1436E+00  0.1429E+00
     23.297  0.4210E-01  0.3682E-01  0.1475E+00  0.1463E+00
     23.391 -0.1511E-02  0.1209E-01  0.1474E+00  0.1474E+00
     23.484 -0.9104E-06 -0.2022E-03  0.1474E+00  0.1474E+00
     23.578 -0.2235E-12 -0.3776E-08  0.1474E+00  0.1474E+00
     23.671  0.0000E+00 -0.4221E-16  0.1474E+00  0.1474E+00
     23.765  0.0000E+00  0.0000E+00  0.1474E+00  0.1474E+00
     23.858  0.0000E+00  0.0000E+00  0.1474E+00  0.1474E+00
     23.952  0.0000E+00  0.0000E+00  0.1474E+00  0.1474E+00
     24.045  0.0000E+00  0.0000E+00  0.1474E+00  0.1474E+00
     24.139  0.0000E+00  0.0000E+00  0.1474E+00  0.1474E+00
     24.232 -0.2350E-30 -0.9070E-37  0.1474E+00  0.1474E+00
     24.326 -0.1259E-18 -0.1243E-23  0.1474E+00  0.1474E+00
     24.419 -0.5362E-10 -0.1402E-13  0.1474E+00  0.1474E+00
     24.513 -0.1643E-04 -0.1252E-06  0.1474E+00  0.1474E+00
     24.606  0.6438E-03 -0.5471E-03  0.1475E+00  0.1474E+00
     24.700  0.2394E-01  0.1764E-01  0.1497E+00  0.1490E+00
     24.794 -0.8021E-03  0.6787E-02  0.1496E+00  0.1496E+00
     24.887 -0.5166E-03 -0.1561E-03  0.1496E+00  0.1496E+00
     24.981  0.1707E-01  0.2464E-02  0.1512E+00  0.1499E+00
     25.074  0.7340E-02  0.2215E-01  0.1519E+00  0.1519E+00
     25.168 -0.1309E-03 -0.8142E-03  0.1519E+00  0.1519E+00
     25.261 -0.3287E-08 -0.7475E-06  0.1519E+00  0.1519E+00
     25.355 -0.5276E-16 -0.2521E-12  0.1519E+00  0.1519E+00
     25.448 -0.5078E-26 -0.1693E-29  0.1519E+00  0.1519E+00
     25.542 -0.2842E-15 -0.6735E-18  0.1519E+00  0.1519E+00
     25.635 -0.1287E-07 -0.2120E-09  0.1519E+00  0.1519E+00
     25.729 -0.3539E-03 -0.4736E-04  0.1518E+00  0.1518E+00
     25.822  0.1811E-01  0.2603E-02  0.1535E+00  0.1521E+00
     25.916  0.3061E-01  0.4665E-01  0.1564E+00  0.1565E+00
     26.009 -0.8489E-03 -0.1683E-02  0.1563E+00  0.1563E+00
     26.103  0.2509E-04 -0.3974E-03  0.1563E+00  0.1563E+00
     26.196  0.1579E-01  0.1631E-01  0.1578E+00  0.1578E+00
     26.290  0.1600E-01  0.1055E-02  0.1593E+00  0.1579E+00
     26.383  0.7943E-02  0.2347E-01  0.1600E+00  0.1601E+00
     26.477 -0.1463E-03 -0.8364E-03  0.1600E+00  0.1600E+00
     26.570 -0.4196E-08 -0.1573E-05  0.1600E+00  0.1600E+00
     26.664 -0.7386E-16 -0.8720E-12  0.1600E+00  0.1600E+00
     26.758  0.0000E+00  0.0000E+00  0.1600E+00  0.1600E+00
     26.851  0.0000E+00  0.0000E+00  0.1600E+00  0.1600E+00
     26.945  0.0000E+00  0.0000E+00  0.1600E+00  0.1600E+00
     27.038  0.0000E+00  0.0000E+00  0.1600E+00  0.1600E+00
     27.132  0.0000E+00  0.0000E+00  0.1600E+00  0.1600E+00
     27.225  0.0000E+00  0.0000E+00  0.1600E+00  0.1600E+00
     27.319  0.0000E+00  0.0000E+00  0.1600E+00  0.1600E+00
     27.412  0.0000E+00  0.0000E+00  0.1600E+00  0.1600E+00
     27.506  0.0000E+00  0.0000E+00  0.1600E+00  0.1600E+00
     27.599  0.0000E+00  0.0000E+00  0.1600E+00  0.1600E+00
