    4    4  200    2
  0.1564269E+02  0.3970000E-09  0.3970000E-09  0.3970000E-09  0.5000000E-15
   1.0000000000000000E-004
  CAR 
 Slab                                    
     40      4     32

  0.3742002E-15  0.3742002E-15  0.3742002E-15  0.3703704E-01
    1        0.817477      0.841098   1.000000   1.000000
    2        3.914397      4.020743   1.000000   1.000000
    3        3.914397      4.020743   1.000000   1.000000
    4        3.914397      4.020743   1.000000   1.000000
    5        4.345095      4.456552   1.000000   1.000000
    6        4.345095      4.456552   1.000000   1.000000
    7        4.345095      4.456552   1.000000   1.000000
    8        7.042349      7.181288   1.000000   1.000000
    9        7.042349      7.181288   1.000000   1.000000
   10        7.042349      7.181288   1.000000   1.000000
   11        9.093038      9.267961   1.000000   1.000000
   12        9.093038      9.267961   1.000000   1.000000
   13       10.647490     10.835312   1.002256  -0.031320
   14       10.647490     10.835312   1.002256  -0.031320
   15       10.647490     10.835312   1.002256  -0.031320
   16       11.108351     11.279288  -0.000000  -0.000000
   17       11.108351     11.279288  -0.000000  -0.000000
   18       11.108351     11.279288  -0.000000  -0.000000
   19       11.108351     11.279288  -0.000000  -0.000000
   20       11.108351     11.279288  -0.000000  -0.000000
   21       11.108351     11.279288  -0.000000  -0.000000
   22       12.565554     12.570111   0.000000   0.000000
   23       12.565554     12.570111   0.000000   0.000000
   24       12.565554     12.570111   0.000000   0.000000
   25       19.257949     19.372760   0.000000   0.000000
   26       19.257949     19.372760   0.000000   0.000000
   27       19.257949     19.372760   0.000000   0.000000
   28       22.026860     22.049164   0.000000   0.000000
   29       22.026860     22.049164   0.000000   0.000000
   30       22.026860     22.049164   0.000000   0.000000
   31       22.026860     22.049164   0.000000   0.000000
   32       22.026860     22.049164   0.000000   0.000000

  0.3333333E+00  0.3742002E-15  0.3742002E-15  0.2222222E+00
    1        2.191352      2.216120   1.000000   1.000000
    2        4.174657      4.253524   1.000000   1.000000
    3        4.825068      4.937020   1.000000   1.000000
    4        4.825068      4.937020   1.000000   1.000000
    5        4.910712      5.026672   1.000000   1.000000
    6        5.235814      5.346357   1.000000   1.000000
    7        5.235814      5.346357   1.000000   1.000000
    8        6.236352      6.365224   1.000000   1.000000
    9        7.767718      7.908990   1.000000   1.000000
   10        7.767718      7.908990   1.000000   1.000000
   11        7.798650      7.909303   1.000000   1.000000
   12        7.798650      7.909303   1.000000   1.000000
   13        8.232832      8.393331   1.000000   1.000000
   14        8.695406      8.773238   1.000000   1.000000
   15        9.349769      9.514560   1.000000   1.000000
   16        9.349769      9.514560   1.000000   1.000000
   17        9.448353      9.625897   1.000000   1.000000
   18        9.676636      9.830183   1.000000   1.000000
   19        9.676636      9.830183   1.000000   1.000000
   20       10.222161     10.406058   1.000000   1.000000
   21       11.110717     11.281705  -0.000000  -0.000000
   22       11.110717     11.281705  -0.000000  -0.000000
   23       16.625006     16.683953   0.000000   0.000000
   24       16.625006     16.683953   0.000000   0.000000
   25       17.886468     17.977670   0.000000   0.000000
   26       17.886468     17.977670   0.000000   0.000000
   27       20.626767     20.665378   0.000000   0.000000
   28       20.626767     20.665378   0.000000   0.000000
   29       22.483558     22.550500   0.000000   0.000000
   30       22.483558     22.550500   0.000000   0.000000
   31       24.968583     25.008232   0.000000   0.000000
   32       24.968583     25.008232   0.000000   0.000000

  0.3333333E+00  0.3333333E+00  0.3742002E-15  0.4444444E+00
    1        3.309656      3.340003   1.000000   1.000000
    2        5.071552      5.184784   1.000000   1.000000
    3        5.210445      5.289682   1.000000   1.000000
    4        5.210445      5.289682   1.000000   1.000000
    5        5.601564      5.715083   1.000000   1.000000
    6        5.601564      5.715083   1.000000   1.000000
    7        6.021566      6.123469   1.000000   1.000000
    8        6.232277      6.353893   1.000000   1.000000
    9        6.532746      6.652622   1.000000   1.000000
   10        6.532746      6.652622   1.000000   1.000000
   11        7.145142      7.253165   1.000000   1.000000
   12        7.342059      7.482031   1.000000   1.000000
   13        8.000882      8.146255   1.000000   1.000000
   14        8.287683      8.451204   1.000000   1.000000
   15        8.859473      9.024012   1.000000   1.000000
   16        9.167022      9.323931   1.000000   1.000000
   17        9.167022      9.323931   1.000000   1.000000
   18        9.669072      9.824104   1.000000   1.000000
   19        9.669072      9.824104   1.000000   1.000000
   20       10.041712     10.203088   1.000000   1.000000
   21       10.224529     10.391009   1.000000   1.000000
   22       12.590790     12.724000   0.000000   0.000000
   23       12.590790     12.724000   0.000000   0.000000
   24       14.938749     15.021180   0.000000   0.000000
   25       19.290572     19.357875   0.000000   0.000000
   26       20.189471     20.271749   0.000000   0.000000
   27       21.212587     21.269129   0.000000   0.000000
   28       21.212587     21.269129   0.000000   0.000000
   29       23.227210     23.281583   0.000000   0.000000
   30       23.227210     23.281583   0.000000   0.000000
   31       24.643564     24.686516   0.000000   0.000000
   32       26.279510     26.323911   0.000000   0.000000

  0.3333333E+00  0.3333333E+00  0.3333333E+00  0.2962963E+00
    1        3.479697      3.539080   1.000000   1.000000
    2        4.387440      4.475227   1.000000   1.000000
    3        4.387440      4.475227   1.000000   1.000000
    4        4.387440      4.475227   1.000000   1.000000
    5        6.436536      6.568306   1.000000   1.000000
    6        6.436536      6.568306   1.000000   1.000000
    7        6.436536      6.568306   1.000000   1.000000
    8        7.233345      7.380346   1.000000   1.000000
    9        7.233345      7.380346   1.000000   1.000000
   10        7.570477      7.641431   1.000000   1.000000
   11        7.642130      7.738452   1.000000   1.000000
   12        7.642130      7.738452   1.000000   1.000000
   13        7.642130      7.738452   1.000000   1.000000
   14        7.724288      7.875090   1.000000   1.000000
   15        7.724288      7.875090   1.000000   1.000000
   16        7.724288      7.875090   1.000000   1.000000
   17        9.861538     10.030879   1.000000   1.000000
   18        9.861538     10.030879   1.000000   1.000000
   19       10.738909     10.914958   0.878724  -0.000091
   20       10.738909     10.914958   0.878724  -0.000091
   21       10.738909     10.914958   0.878724  -0.000091
   22       13.111042     13.210894   0.000000   0.000000
   23       13.111042     13.210894   0.000000   0.000000
   24       13.111042     13.210894   0.000000   0.000000
   25       16.978423     17.070071   0.000000   0.000000
   26       16.978423     17.070071   0.000000   0.000000
   27       16.978423     17.070071   0.000000   0.000000
   28       20.816140     20.886758   0.000000   0.000000
   29       25.829849     25.855427   0.000000   0.000000
   30       25.829849     25.855427   0.000000   0.000000
   31       25.829849     25.855427   0.000000   0.000000
   32       26.144689     26.152841   0.000000   0.000000
