       N       E                     dE             d eps       ncg     rms          rms(c)
DAV:   1     0.201904540650E+03    0.20190E+03   -0.17055E+04   520   0.966E+02
DAV:   2    -0.206854455366E+02   -0.22259E+03   -0.21108E+03   576   0.249E+02
DAV:   3    -0.260268295342E+02   -0.53414E+01   -0.52918E+01   608   0.379E+01
DAV:   4    -0.260616708837E+02   -0.34841E-01   -0.34837E-01   552   0.331E+00
DAV:   5    -0.260620881045E+02   -0.41722E-03   -0.41722E-03   624   0.381E-01    0.234E+01
DAV:   6    -0.250930642373E+02    0.96902E+00   -0.20490E+00   552   0.944E+00    0.120E+01
DAV:   7    -0.249627442335E+02    0.13032E+00   -0.41118E-01   528   0.409E+00    0.500E+00
DAV:   8    -0.249491207377E+02    0.13623E-01   -0.99068E-03   552   0.577E-01    0.204E+00
DAV:   9    -0.249411817880E+02    0.79389E-02   -0.74675E-03   576   0.475E-01    0.368E-01
DAV:  10    -0.249406519259E+02    0.52986E-03   -0.96122E-04   528   0.161E-01    0.556E-02
DAV:  11    -0.249406501047E+02    0.18212E-05   -0.15284E-05   288   0.269E-02
   1 F= -.24940650E+02 E0= -.24940022E+02  d E =-.249407E+02  mag=     0.8964
       N       E                     dE             d eps       ncg     rms          rms(c)
DAV:   1    -0.252443293281E+02   -0.30368E+00   -0.63244E+00   544   0.169E+01    0.409E+00
DAV:   2    -0.249387144178E+02    0.30561E+00   -0.49459E-01   512   0.466E+00    0.149E+00
DAV:   3    -0.249162105428E+02    0.22504E-01   -0.64959E-02   544   0.165E+00    0.759E-01
DAV:   4    -0.249168051783E+02   -0.59464E-03   -0.13889E-03   504   0.184E-01    0.436E-01
DAV:   5    -0.249173001353E+02   -0.49496E-03   -0.65137E-04   544   0.119E-01    0.417E-02
DAV:   6    -0.249172863587E+02    0.13777E-04   -0.29712E-05   256   0.321E-02
   2 F= -.24917286E+02 E0= -.24916663E+02  d E =0.233637E-01  mag=     0.8964
       N       E                     dE             d eps       ncg     rms          rms(c)
DAV:   1    -0.251210902590E+02   -0.20379E+00   -0.34052E+00   552   0.124E+01    0.274E+00
DAV:   2    -0.249552593286E+02    0.16583E+00   -0.27614E-01   520   0.350E+00    0.125E+00
DAV:   3    -0.249439019688E+02    0.11357E-01   -0.31674E-02   536   0.115E+00    0.683E-01
DAV:   4    -0.249441697050E+02   -0.26774E-03   -0.86816E-04   496   0.138E-01    0.366E-01
DAV:   5    -0.249442876918E+02   -0.11799E-03   -0.12217E-04   496   0.496E-02    0.372E-02
DAV:   6    -0.249442996462E+02   -0.11954E-04   -0.95121E-06   256   0.160E-02
   3 F= -.24944300E+02 E0= -.24943672E+02  d E =-.364954E-02  mag=     0.8960
