Slab                                    
           1
     3.970000    0.000000    0.000000
     0.000000    3.970000    0.000000
     0.000000    0.000000    3.970000
   Pt
   4
Direct configuration=     1
   0.00000000  0.00000000  0.00000000
   0.50000000  0.50000000  0.00000000
   0.50000000  0.00000000  0.50000000
   0.00000000  0.50000000  0.50000000
Slab                                    
           1
     3.928460    0.000000    0.000000
     0.000000    3.928460    0.000000
     0.000000    0.000000    3.928460
   Pt
   4
Direct configuration=     2
   0.00000000  0.00000000  0.00000000
   0.50000000  0.50000000  0.00000000
   0.50000000  0.00000000  0.50000000
   0.00000000  0.50000000  0.50000000
Slab                                    
           1
     3.958864    0.000000    0.000000
     0.000000    3.958864    0.000000
     0.000000    0.000000    3.958864
   Pt
   4
Direct configuration=     3
   0.00000000  0.00000000  0.00000000
   0.50000000  0.50000000  0.00000000
   0.50000000  0.00000000  0.50000000
   0.00000000  0.50000000  0.50000000
