  67  67   0   0
  0.5111729E+02  0.1121440E-08  0.1121440E-08  0.3144560E-08  0.5000000E-15
  1.000000000000000E-004
  CAR 
 Pt                                      
      6.19883445    -24.76035043  301     -0.96745178      1.00000000
    -24.760  0.0000E+00  0.0000E+00
    -24.657  0.0000E+00  0.0000E+00
    -24.554  0.0000E+00  0.0000E+00
    -24.451  0.0000E+00  0.0000E+00
    -24.348  0.0000E+00  0.0000E+00
    -24.244 -0.1530E-32 -0.1579E-33
    -24.141 -0.4553E-25 -0.4699E-26
    -24.038 -0.1582E-18 -0.1633E-19
    -23.935 -0.6172E-13 -0.6370E-14
    -23.832 -0.2841E-08 -0.2932E-09
    -23.728 -0.1455E-04 -0.1502E-05
    -23.625 -0.7873E-02 -0.8140E-03
    -23.522 -0.3605E+00 -0.3802E-01
    -23.419  0.1451E+01  0.1117E+00
    -23.316  0.1430E+02  0.1587E+01
    -23.212  0.4611E+01  0.2063E+01
    -23.109 -0.5817E+00  0.2003E+01
    -23.006 -0.2931E-01  0.2000E+01
    -22.903 -0.1026E-03  0.2000E+01
    -22.800 -0.3681E-07  0.2000E+01
    -22.696 -0.1461E-11  0.2000E+01
    -22.593  0.0000E+00  0.2000E+01
    -22.490  0.0000E+00  0.2000E+01
    -22.387  0.0000E+00  0.2000E+01
    -22.284  0.0000E+00  0.2000E+01
    -22.180  0.0000E+00  0.2000E+01
    -22.077  0.0000E+00  0.2000E+01
    -21.974  0.0000E+00  0.2000E+01
    -21.871  0.0000E+00  0.2000E+01
    -21.768  0.0000E+00  0.2000E+01
    -21.664  0.0000E+00  0.2000E+01
    -21.561  0.0000E+00  0.2000E+01
    -21.458  0.0000E+00  0.2000E+01
    -21.355  0.0000E+00  0.2000E+01
    -21.252  0.0000E+00  0.2000E+01
    -21.148  0.0000E+00  0.2000E+01
    -21.045  0.0000E+00  0.2000E+01
    -20.942  0.0000E+00  0.2000E+01
    -20.839  0.0000E+00  0.2000E+01
    -20.736  0.0000E+00  0.2000E+01
    -20.632  0.0000E+00  0.2000E+01
    -20.529  0.0000E+00  0.2000E+01
    -20.426  0.0000E+00  0.2000E+01
    -20.323  0.0000E+00  0.2000E+01
    -20.220  0.0000E+00  0.2000E+01
    -20.116  0.0000E+00  0.2000E+01
    -20.013  0.0000E+00  0.2000E+01
    -19.910  0.0000E+00  0.2000E+01
    -19.807  0.0000E+00  0.2000E+01
    -19.704  0.0000E+00  0.2000E+01
    -19.600  0.0000E+00  0.2000E+01
    -19.497  0.0000E+00  0.2000E+01
    -19.394  0.0000E+00  0.2000E+01
    -19.291  0.0000E+00  0.2000E+01
    -19.188  0.0000E+00  0.2000E+01
    -19.084  0.0000E+00  0.2000E+01
    -18.981  0.0000E+00  0.2000E+01
    -18.878  0.0000E+00  0.2000E+01
    -18.775  0.0000E+00  0.2000E+01
    -18.672  0.0000E+00  0.2000E+01
    -18.569  0.0000E+00  0.2000E+01
    -18.465  0.0000E+00  0.2000E+01
    -18.362  0.0000E+00  0.2000E+01
    -18.259  0.0000E+00  0.2000E+01
    -18.156  0.0000E+00  0.2000E+01
    -18.053  0.0000E+00  0.2000E+01
    -17.949  0.0000E+00  0.2000E+01
    -17.846  0.0000E+00  0.2000E+01
    -17.743  0.0000E+00  0.2000E+01
    -17.640  0.0000E+00  0.2000E+01
    -17.537  0.0000E+00  0.2000E+01
    -17.433  0.0000E+00  0.2000E+01
    -17.330  0.0000E+00  0.2000E+01
    -17.227  0.0000E+00  0.2000E+01
    -17.124  0.0000E+00  0.2000E+01
    -17.021  0.0000E+00  0.2000E+01
    -16.917  0.0000E+00  0.2000E+01
    -16.814  0.0000E+00  0.2000E+01
    -16.711  0.0000E+00  0.2000E+01
    -16.608  0.0000E+00  0.2000E+01
    -16.505  0.0000E+00  0.2000E+01
    -16.401  0.0000E+00  0.2000E+01
    -16.298  0.0000E+00  0.2000E+01
    -16.195  0.0000E+00  0.2000E+01
    -16.092  0.0000E+00  0.2000E+01
    -15.989  0.0000E+00  0.2000E+01
    -15.885  0.0000E+00  0.2000E+01
    -15.782  0.0000E+00  0.2000E+01
    -15.679  0.0000E+00  0.2000E+01
    -15.576  0.0000E+00  0.2000E+01
    -15.473  0.0000E+00  0.2000E+01
    -15.369  0.0000E+00  0.2000E+01
    -15.266  0.0000E+00  0.2000E+01
    -15.163  0.0000E+00  0.2000E+01
    -15.060  0.0000E+00  0.2000E+01
    -14.957  0.0000E+00  0.2000E+01
    -14.853  0.0000E+00  0.2000E+01
    -14.750  0.0000E+00  0.2000E+01
    -14.647  0.0000E+00  0.2000E+01
    -14.544  0.0000E+00  0.2000E+01
    -14.441  0.0000E+00  0.2000E+01
    -14.337  0.0000E+00  0.2000E+01
    -14.234  0.0000E+00  0.2000E+01
    -14.131  0.0000E+00  0.2000E+01
    -14.028  0.0000E+00  0.2000E+01
    -13.925  0.0000E+00  0.2000E+01
    -13.821  0.0000E+00  0.2000E+01
    -13.718  0.0000E+00  0.2000E+01
    -13.615  0.0000E+00  0.2000E+01
    -13.512  0.0000E+00  0.2000E+01
    -13.409  0.0000E+00  0.2000E+01
    -13.305  0.0000E+00  0.2000E+01
    -13.202  0.0000E+00  0.2000E+01
    -13.099  0.0000E+00  0.2000E+01
    -12.996  0.0000E+00  0.2000E+01
    -12.893  0.0000E+00  0.2000E+01
    -12.789  0.0000E+00  0.2000E+01
    -12.686  0.0000E+00  0.2000E+01
    -12.583 -0.6328E-32  0.2000E+01
    -12.480 -0.1592E-24  0.2000E+01
    -12.377 -0.4677E-18  0.2000E+01
    -12.273 -0.1548E-12  0.2000E+01
    -12.170 -0.5981E-08  0.2000E+01
    -12.067 -0.2578E-04  0.2000E+01
    -11.964 -0.1165E-01  0.1999E+01
    -11.861 -0.4271E+00  0.1955E+01
    -11.757  0.2193E+01  0.2181E+01
    -11.654  0.1461E+02  0.3688E+01
    -11.551  0.3566E+01  0.4056E+01
    -11.448 -0.5266E+00  0.4002E+01
    -11.345 -0.2058E-01  0.4000E+01
    -11.242 -0.6002E-04  0.4000E+01
    -11.138 -0.1812E-07  0.4000E+01
    -11.035 -0.6068E-12  0.4000E+01
    -10.932 -0.9313E-20  0.4000E+01
    -10.829 -0.3660E-14  0.4000E+01
    -10.726 -0.1703E-09  0.4000E+01
    -10.622 -0.8808E-06  0.4000E+01
    -10.519 -0.4820E-03  0.4000E+01
    -10.416 -0.2294E-01  0.3998E+01
    -10.313  0.2687E-01  0.4000E+01
    -10.210  0.8181E+00  0.4085E+01
    -10.106  0.4573E+01  0.4557E+01
    -10.003  0.3109E+01  0.4878E+01
     -9.900  0.1141E+01  0.4995E+01
     -9.797  0.6095E+01  0.5624E+01
     -9.694  0.5905E+01  0.6234E+01
     -9.590  0.1527E+01  0.6391E+01
     -9.487 -0.6013E+00  0.6329E+01
     -9.384  0.5878E+01  0.6936E+01
     -9.281  0.8838E+01  0.7848E+01
     -9.178  0.2314E+01  0.8087E+01
     -9.074  0.4966E+01  0.8599E+01
     -8.971  0.2712E+00  0.8627E+01
     -8.868  0.1590E+01  0.8791E+01
     -8.765  0.1366E+02  0.1020E+02
     -8.662  0.1387E+02  0.1163E+02
     -8.558  0.4465E+01  0.1209E+02
     -8.455  0.1101E+02  0.1323E+02
     -8.352  0.7434E+01  0.1400E+02
     -8.249 -0.4956E+00  0.1395E+02
     -8.146  0.1284E+02  0.1527E+02
     -8.042  0.3179E+02  0.1855E+02
     -7.939  0.1995E+02  0.2061E+02
     -7.836  0.1182E+02  0.2183E+02
     -7.733  0.4049E+01  0.2225E+02
     -7.630  0.2054E+02  0.2437E+02
     -7.526  0.4966E+02  0.2949E+02
     -7.423  0.4986E+02  0.3464E+02
     -7.320  0.4351E+02  0.3913E+02
     -7.217  0.4467E+02  0.4374E+02
     -7.114  0.6649E+02  0.5060E+02
     -7.010  0.5031E+02  0.5579E+02
     -6.907  0.5216E+02  0.6117E+02
     -6.804  0.6865E+02  0.6826E+02
     -6.701  0.7825E+02  0.7633E+02
     -6.598  0.9804E+02  0.8645E+02
     -6.494  0.1025E+03  0.9703E+02
     -6.391  0.9070E+02  0.1064E+03
     -6.288  0.9754E+02  0.1165E+03
     -6.185  0.8866E+02  0.1256E+03
     -6.082  0.7140E+02  0.1330E+03
     -5.978  0.6891E+02  0.1401E+03
     -5.875  0.5216E+02  0.1455E+03
     -5.772  0.3021E+02  0.1486E+03
     -5.669  0.8614E+02  0.1575E+03
     -5.566  0.1007E+03  0.1679E+03
     -5.462  0.7597E+02  0.1757E+03
     -5.359  0.7608E+02  0.1836E+03
     -5.256  0.8807E+02  0.1927E+03
     -5.153  0.9458E+02  0.2024E+03
     -5.050  0.7635E+02  0.2103E+03
     -4.946  0.7330E+02  0.2179E+03
     -4.843  0.5747E+02  0.2238E+03
     -4.740  0.8876E+02  0.2329E+03
     -4.637  0.9904E+02  0.2432E+03
     -4.534  0.1222E+03  0.2558E+03
     -4.430  0.1365E+03  0.2699E+03
     -4.327  0.1053E+03  0.2807E+03
     -4.224  0.1080E+03  0.2919E+03
     -4.121  0.1530E+03  0.3077E+03
     -4.018  0.1497E+03  0.3231E+03
     -3.914  0.1482E+03  0.3384E+03
     -3.811  0.1433E+03  0.3532E+03
     -3.708  0.1472E+03  0.3684E+03
     -3.605  0.1360E+03  0.3824E+03
     -3.502  0.7900E+02  0.3906E+03
     -3.399  0.7529E+02  0.3983E+03
     -3.295  0.7443E+02  0.4060E+03
     -3.192  0.7138E+02  0.4134E+03
     -3.089  0.8872E+02  0.4225E+03
     -2.986  0.1438E+03  0.4374E+03
     -2.883  0.1304E+03  0.4508E+03
     -2.779  0.8531E+02  0.4597E+03
     -2.676  0.8053E+02  0.4680E+03
     -2.573  0.8051E+02  0.4763E+03
     -2.470  0.8697E+02  0.4852E+03
     -2.367  0.8532E+02  0.4941E+03
     -2.263  0.1006E+03  0.5044E+03
     -2.160  0.1041E+03  0.5152E+03
     -2.057  0.1412E+03  0.5297E+03
     -1.954  0.1352E+03  0.5437E+03
     -1.851  0.1122E+03  0.5553E+03
     -1.747  0.8409E+02  0.5640E+03
     -1.644  0.5576E+02  0.5697E+03
     -1.541  0.1032E+03  0.5804E+03
     -1.438  0.1160E+03  0.5923E+03
     -1.335  0.1059E+03  0.6033E+03
     -1.231  0.9077E+02  0.6126E+03
     -1.128  0.1224E+03  0.6253E+03
     -1.025  0.1559E+03  0.6414E+03
     -0.922  0.1592E+03  0.6578E+03
     -0.819  0.1119E+03  0.6693E+03
     -0.715  0.1011E+03  0.6798E+03
     -0.612  0.7553E+02  0.6876E+03
     -0.509  0.2689E+02  0.6903E+03
     -0.406  0.1349E+02  0.6917E+03
     -0.303  0.2724E+02  0.6945E+03
     -0.199  0.1946E+02  0.6965E+03
     -0.096  0.1816E+02  0.6984E+03
      0.007  0.2762E+02  0.7013E+03
      0.110  0.2530E+02  0.7039E+03
      0.213  0.2884E+02  0.7069E+03
      0.317  0.3128E+02  0.7101E+03
      0.420  0.2251E+02  0.7124E+03
      0.523  0.1669E+02  0.7141E+03
      0.626  0.9440E+01  0.7151E+03
      0.729  0.5544E+01  0.7157E+03
      0.833  0.1425E+02  0.7171E+03
      0.936  0.2095E+02  0.7193E+03
      1.039  0.2512E+02  0.7219E+03
      1.142  0.1969E+02  0.7239E+03
      1.245  0.2792E+02  0.7268E+03
      1.349  0.3431E+02  0.7304E+03
      1.452  0.2509E+02  0.7329E+03
      1.555  0.2471E+02  0.7355E+03
      1.658  0.1464E+02  0.7370E+03
      1.761  0.1547E+02  0.7386E+03
      1.865  0.1707E+02  0.7404E+03
      1.968  0.1649E+02  0.7421E+03
      2.071  0.2748E+02  0.7449E+03
      2.174  0.1632E+02  0.7466E+03
      2.277  0.1538E+02  0.7482E+03
      2.381  0.2940E+02  0.7512E+03
      2.484  0.1839E+02  0.7531E+03
      2.587  0.1547E+02  0.7547E+03
      2.690  0.1911E+02  0.7567E+03
      2.793  0.2577E+02  0.7593E+03
      2.897  0.2412E+02  0.7618E+03
      3.000  0.2589E+02  0.7645E+03
      3.103  0.1250E+02  0.7658E+03
      3.206  0.1143E+02  0.7670E+03
      3.309  0.2434E+02  0.7695E+03
      3.413  0.3478E+02  0.7731E+03
      3.516  0.1228E+02  0.7743E+03
      3.619  0.1176E+02  0.7755E+03
      3.722  0.1230E+02  0.7768E+03
      3.825  0.6065E+01  0.7774E+03
      3.928  0.2765E+01  0.7777E+03
      4.032  0.1036E+02  0.7788E+03
      4.135  0.7760E+01  0.7796E+03
      4.238  0.8922E+01  0.7805E+03
      4.341  0.3793E+01  0.7809E+03
      4.444  0.2084E+01  0.7811E+03
      4.548  0.6761E+01  0.7818E+03
      4.651  0.1346E+02  0.7832E+03
      4.754  0.6387E+01  0.7839E+03
      4.857  0.1298E+01  0.7840E+03
      4.960  0.6396E-01  0.7840E+03
      5.064 -0.3977E-01  0.7840E+03
      5.167 -0.7541E-03  0.7840E+03
      5.270 -0.1277E-05  0.7840E+03
      5.373 -0.2330E-09  0.7840E+03
      5.476 -0.4572E-14  0.7840E+03
      5.580  0.0000E+00  0.7840E+03
      5.683  0.0000E+00  0.7840E+03
      5.786  0.0000E+00  0.7840E+03
      5.889  0.0000E+00  0.7840E+03
      5.992  0.0000E+00  0.7840E+03
      6.096  0.0000E+00  0.7840E+03
      6.199  0.0000E+00  0.7840E+03
