   67   67    1    1
  0.5111729E+02  0.1121440E-08  0.1121440E-08  0.3144560E-08  0.5000000E-15
  1.000000000000000E-004
  CAR 
 Pt                                      
    651     10    392
 
  0.0000000E+00  0.0000000E+00  0.0000000E+00  0.6250000E-01
    1      -23.353115   1.000000
    2      -11.701020   1.000000
    3      -10.246540   1.000000
    4       -8.928247   1.000000
    5       -8.484268   1.000000
    6       -8.480414   1.000000
    7       -8.479242   1.000000
    8       -8.473975   1.000000
    9       -8.459213   1.000000
   10       -8.437642   1.000000
   11       -8.034092   1.000000
   12       -7.822946   1.000000
   13       -7.744635   1.000000
   14       -7.586260   1.000000
   15       -7.509968   1.000000
   16       -7.502349   1.000000
   17       -7.491750   1.000000
   18       -7.422833   1.000000
   19       -7.414163   1.000000
   20       -7.411908   1.000000
   21       -7.411178   1.000000
   22       -7.381014   1.000000
   23       -7.347816   1.000000
   24       -7.339546   1.000000
   25       -7.334637   1.000000
   26       -7.178114   1.000000
   27       -6.909753   1.000000
   28       -6.902687   1.000000
   29       -6.878439   1.000000
   30       -6.792136   1.000000
   31       -6.651070   1.000000
   32       -6.647407   1.000000
   33       -6.645278   1.000000
   34       -6.642753   1.000000
   35       -6.640067   1.000000
   36       -6.637444   1.000000
   37       -6.635367   1.000000
   38       -6.634595   1.000000
   39       -6.631164   1.000000
   40       -6.626176   1.000000
   41       -6.623565   1.000000
   42       -6.616495   1.000000
   43       -6.615903   1.000000
   44       -6.602817   1.000000
   45       -6.587641   1.000000
   46       -6.560725   1.000000
   47       -6.548454   1.000000
   48       -6.522144   1.000000
   49       -6.508312   1.000000
   50       -6.487670   1.000000
   51       -6.473367   1.000000
   52       -6.465873   1.000000
   53       -6.451993   1.000000
   54       -6.446699   1.000000
   55       -6.309026   1.000000
   56       -6.299213   1.000000
   57       -6.291756   1.000000
   58       -6.282889   1.000000
   59       -6.273192   1.000000
   60       -6.242660   1.000000
   61       -6.174514   1.000000
   62       -6.169542   1.000000
   63       -6.161890   1.000000
   64       -6.158972   1.000000
   65       -6.154731   1.000000
   66       -6.127353   1.000000
   67       -5.833300   1.000000
   68       -5.829997   1.000000
   69       -5.820635   1.000000
   70       -5.815193   1.000000
   71       -5.811006   1.000000
   72       -5.807072   1.000000
   73       -5.754460   1.000000
   74       -5.744132   1.000000
   75       -5.737764   1.000000
   76       -5.689453   1.000000
   77       -5.687182   1.000000
   78       -5.682710   1.000000
   79       -5.680208   1.000000
   80       -5.677995   1.000000
   81       -5.651649   1.000000
   82       -5.648942   1.000000
   83       -5.639218   1.000000
   84       -5.634838   1.000000
   85       -5.622113   1.000000
   86       -5.614753   1.000000
   87       -5.612944   1.000000
   88       -5.283408   1.000000
   89       -5.272068   1.000000
   90       -5.264972   1.000000
   91       -5.260693   1.000000
   92       -5.256960   1.000000
   93       -5.244845   1.000000
   94       -5.214586   1.000000
   95       -5.209386   1.000000
   96       -5.204858   1.000000
   97       -5.196871   1.000000
   98       -5.193894   1.000000
   99       -5.190360   1.000000
  100       -5.187473   1.000000
  101       -5.183213   1.000000
  102       -5.176827   1.000000
  103       -5.170570   1.000000
  104       -5.166233   1.000000
  105       -5.160617   1.000000
  106       -5.060990   1.000000
  107       -5.055749   1.000000
  108       -5.048266   1.000000
  109       -5.041591   1.000000
  110       -5.038358   1.000000
  111       -5.029347   1.000000
  112       -4.803940   1.000000
  113       -4.800227   1.000000
  114       -4.791595   1.000000
  115       -4.784508   1.000000
  116       -4.780582   1.000000
  117       -4.772514   1.000000
  118       -4.763726   1.000000
  119       -4.760096   1.000000
  120       -4.739345   1.000000
  121       -4.654095   1.000000
  122       -4.647226   1.000000
  123       -4.640206   1.000000
  124       -4.631933   1.000000
  125       -4.621425   1.000000
  126       -4.620364   1.000000
  127       -4.616475   1.000000
  128       -4.609109   1.000000
  129       -4.601479   1.000000
  130       -4.589998   1.000000
  131       -4.509699   1.000000
  132       -4.464011   1.000000
  133       -4.455529   1.000000
  134       -4.448765   1.000000
  135       -4.444168   1.000000
  136       -4.441259   1.000000
  137       -4.440678   1.000000
  138       -4.436419   1.000000
  139       -4.429748   1.000000
  140       -4.347185   1.000000
  141       -4.339356   1.000000
  142       -4.275857   1.000000
  143       -4.274548   1.000000
  144       -4.270385   1.000000
  145       -4.257872   1.000000
  146       -4.250520   1.000000
  147       -4.238102   1.000000
  148       -4.202315   1.000000
  149       -4.191078   1.000000
  150       -4.176968   1.000000
  151       -4.094997   1.000000
  152       -4.059094   1.000000
  153       -4.045545   1.000000
  154       -4.039375   1.000000
  155       -4.027980   1.000000
  156       -4.020853   1.000000
  157       -4.003499   1.000000
  158       -3.994974   1.000000
  159       -3.963895   1.000000
  160       -3.957538   1.000000
  161       -3.946063   1.000000
  162       -3.942471   1.000000
  163       -3.939278   1.000000
  164       -3.934155   1.000000
  165       -3.899555   1.000000
  166       -3.882559   1.000000
  167       -3.871679   1.000000
  168       -3.870469   1.000000
  169       -3.864883   1.000000
  170       -3.859187   1.000000
  171       -3.855545   1.000000
  172       -3.854513   1.000000
  173       -3.852367   1.000000
  174       -3.846643   1.000000
  175       -3.842681   1.000000
  176       -3.837843   1.000000
  177       -3.832885   1.000000
  178       -3.827956   1.000000
  179       -3.827329   1.000000
  180       -3.822768   1.000000
  181       -3.816944   1.000000
  182       -3.810885   1.000000
  183       -3.799420   1.000000
  184       -3.786688   1.000000
  185       -3.722332   1.000000
  186       -3.702630   1.000000
  187       -3.690988   1.000000
  188       -3.686606   1.000000
  189       -3.684632   1.000000
  190       -3.672070   1.000000
  191       -3.661899   1.000000
  192       -3.647778   1.000000
  193       -3.643447   1.000000
  194       -3.633549   1.000000
  195       -3.621844   1.000000
  196       -3.619408   1.000000
  197       -3.586582   1.000000
  198       -3.563671   1.000000
  199       -3.553035   1.000000
  200       -3.548999   1.000000
  201       -3.539672   1.000000
  202       -3.530794   1.000000
  203       -3.522370   1.000000
  204       -3.518753   1.000000
  205       -3.503120   1.000000
  206       -3.326059   1.000000
  207       -3.234314   1.000000
  208       -3.181065   1.000000
  209       -3.173318   1.000000
  210       -3.160587   1.000000
  211       -3.157294   1.000000
  212       -3.154910   1.000000
  213       -3.145266   1.000000
  214       -3.105926   1.000000
  215       -3.095557   1.000000
  216       -3.086908   1.000000
  217       -3.065489   1.000000
  218       -3.054579   1.000000
  219       -3.047754   1.000000
  220       -3.045857   1.000000
  221       -3.042048   1.000000
  222       -3.019841   1.000000
  223       -2.983687   1.000000
  224       -2.960452   1.000000
  225       -2.929334   1.000000
  226       -2.918779   1.000000
  227       -2.910034   1.000000
  228       -2.908285   1.000000
  229       -2.899953   1.000000
  230       -2.890819   1.000000
  231       -2.813010   1.000000
  232       -2.797375   1.000000
  233       -2.777237   1.000000
  234       -2.770076   1.000000
  235       -2.769384   1.000000
  236       -2.668379   1.000000
  237       -2.651285   1.000000
  238       -2.598290   1.000000
  239       -2.571226   1.000000
  240       -2.557607   1.000000
  241       -2.539462   1.000000
  242       -2.535009   1.000000
  243       -2.532577   1.000000
  244       -2.511470   1.000000
  245       -2.484825   1.000000
  246       -2.446425   1.000000
  247       -2.431540   1.000000
  248       -2.424704   1.000000
  249       -2.418924   1.000000
  250       -2.411939   1.000000
  251       -2.404952   1.000000
  252       -2.387326   1.000000
  253       -2.382334   1.000000
  254       -2.379955   1.000000
  255       -2.375699   1.000000
  256       -2.373479   1.000000
  257       -2.359289   1.000000
  258       -2.307166   1.000000
  259       -2.295109   1.000000
  260       -2.275947   1.000000
  261       -2.257028   1.000000
  262       -2.241050   1.000000
  263       -2.235021   1.000000
  264       -2.165511   1.000000
  265       -2.162512   1.000000
  266       -2.149384   1.000000
  267       -2.143229   1.000000
  268       -2.136139   1.000000
  269       -2.133233   1.000000
  270       -2.125383   1.000000
  271       -2.111637   1.000000
  272       -2.103056   1.000000
  273       -2.095808   1.000000
  274       -2.094176   1.000000
  275       -2.085610   1.000000
  276       -2.015240   1.000000
  277       -2.000915   1.000000
  278       -1.978624   1.000000
  279       -1.973720   1.000000
  280       -1.968228   1.000000
  281       -1.962435   1.000000
  282       -1.952419   1.000000
  283       -1.908254   1.000000
  284       -1.897726   1.000000
  285       -1.868801   1.000000
  286       -1.775490   1.000000
  287       -1.688683   1.000000
  288       -1.659176   1.000000
  289       -1.596113   1.000000
  290       -1.541565   1.000000
  291       -1.485025   1.000000
  292       -1.474829   1.000000
  293       -1.463583   1.000000
  294       -1.463174   1.000000
  295       -1.457311   1.000000
  296       -1.442316   1.000000
  297       -1.435163   1.000000
  298       -1.303378   1.000011
  299       -1.260886   1.000134
  300       -1.258787   1.000150
  301       -1.254580   1.000188
  302       -1.250976   1.000228
  303       -1.204435   1.002031
  304       -1.173601   1.006521
  305       -1.166737   1.008181
  306       -1.102485   1.033421
  307       -1.089280   1.035451
  308       -1.083798   1.034829
  309       -1.062505   1.019202
  310       -1.010356   0.828674
  311       -0.988849   0.676560
  312       -0.960656   0.442635
  313       -0.932888   0.225969
  314       -0.922183   0.156981
  315       -0.919874   0.143496
  316       -0.909562   0.089678
  317       -0.906695   0.076618
  318       -0.905057   0.069529
  319       -0.904218   0.066001
  320       -0.897305   0.039616
  321       -0.888579   0.012893
  322       -0.884416   0.002589
  323       -0.882700  -0.001225
  324       -0.877582  -0.011171
  325       -0.868482  -0.024024
  326       -0.862488  -0.029541
  327       -0.765094  -0.007403
  328       -0.703168  -0.000597
  329       -0.701018  -0.000539
  330       -0.699221  -0.000494
  331       -0.676078  -0.000150
  332       -0.673193  -0.000128
  333       -0.666368  -0.000088
  334       -0.662872  -0.000072
  335       -0.661934  -0.000068
  336       -0.657605  -0.000053
  337       -0.652422  -0.000039
  338       -0.646238  -0.000027
  339       -0.640823  -0.000020
  340       -0.637702  -0.000016
  341       -0.557866  -0.000000
  342       -0.482567  -0.000000
  343       -0.476376  -0.000000
  344       -0.456835  -0.000000
  345       -0.433046  -0.000000
  346       -0.429992  -0.000000
  347       -0.422752  -0.000000
  348       -0.184459  -0.000000
  349       -0.032018  -0.000000
  350       -0.007672  -0.000000
  351        0.047452  -0.000000
  352        0.667798  -0.000000
  353        0.985033  -0.000000
  354        0.999225  -0.000000
  355        1.001364  -0.000000
  356        1.006429  -0.000000
  357        1.011731  -0.000000
  358        1.013511  -0.000000
  359        1.170165  -0.000000
  360        1.392665  -0.000000
  361        1.402834  -0.000000
  362        1.409622  -0.000000
  363        1.426743  -0.000000
  364        1.432890  -0.000000
  365        1.439350  -0.000000
  366        1.474701  -0.000000
  367        1.497754  -0.000000
  368        1.501251  -0.000000
  369        1.504515  -0.000000
  370        1.515679  -0.000000
  371        1.520184  -0.000000
  372        1.567457  -0.000000
  373        1.713378  -0.000000
  374        1.742012  -0.000000
  375        1.763855   0.000000
  376        1.970104   0.000000
  377        2.011143   0.000000
  378        2.051515   0.000000
  379        2.174204   0.000000
  380        2.336589   0.000000
  381        2.634996   0.000000
  382        2.654436   0.000000
  383        2.665547   0.000000
  384        2.691951   0.000000
  385        2.912393   0.000000
  386        2.988696   0.000000
  387        3.724965   0.000000
  388        3.746384   0.000000
  389        3.761294   0.000000
  390        3.777299   0.000000
  391        3.804674   0.000000
  392        4.387550   0.000000
 
  0.2500000E+00  0.4280917E-16  0.0000000E+00  0.1250000E+00
    1      -23.353020   1.000000
    2      -11.700101   1.000000
    3      -10.115042   1.000000
    4       -9.150510   1.000000
    5       -8.800345   1.000000
    6       -8.724554   1.000000
    7       -8.711629   1.000000
    8       -8.115571   1.000000
    9       -8.056031   1.000000
   10       -8.016238   1.000000
   11       -7.896881   1.000000
   12       -7.870243   1.000000
   13       -7.695438   1.000000
   14       -7.627939   1.000000
   15       -7.603231   1.000000
   16       -7.551683   1.000000
   17       -7.519150   1.000000
   18       -7.429770   1.000000
   19       -7.406256   1.000000
   20       -7.346490   1.000000
   21       -7.293752   1.000000
   22       -7.244026   1.000000
   23       -7.237643   1.000000
   24       -7.174262   1.000000
   25       -7.161693   1.000000
   26       -7.098822   1.000000
   27       -6.986175   1.000000
   28       -6.979318   1.000000
   29       -6.875452   1.000000
   30       -6.849953   1.000000
   31       -6.839105   1.000000
   32       -6.828199   1.000000
   33       -6.816790   1.000000
   34       -6.804545   1.000000
   35       -6.767219   1.000000
   36       -6.735538   1.000000
   37       -6.680933   1.000000
   38       -6.669112   1.000000
   39       -6.655806   1.000000
   40       -6.641490   1.000000
   41       -6.620643   1.000000
   42       -6.609515   1.000000
   43       -6.594789   1.000000
   44       -6.585955   1.000000
   45       -6.543909   1.000000
   46       -6.536793   1.000000
   47       -6.526799   1.000000
   48       -6.509777   1.000000
   49       -6.499851   1.000000
   50       -6.494868   1.000000
   51       -6.486558   1.000000
   52       -6.434281   1.000000
   53       -6.428925   1.000000
   54       -6.415458   1.000000
   55       -6.410425   1.000000
   56       -6.383424   1.000000
   57       -6.360150   1.000000
   58       -6.326670   1.000000
   59       -6.263310   1.000000
   60       -6.256002   1.000000
   61       -6.220532   1.000000
   62       -6.214130   1.000000
   63       -6.162837   1.000000
   64       -6.139819   1.000000
   65       -6.125859   1.000000
   66       -6.041889   1.000000
   67       -6.030008   1.000000
   68       -6.026759   1.000000
   69       -6.016293   1.000000
   70       -5.991839   1.000000
   71       -5.971279   1.000000
   72       -5.931731   1.000000
   73       -5.929627   1.000000
   74       -5.734062   1.000000
   75       -5.730940   1.000000
   76       -5.712085   1.000000
   77       -5.707666   1.000000
   78       -5.696676   1.000000
   79       -5.655426   1.000000
   80       -5.652640   1.000000
   81       -5.598287   1.000000
   82       -5.584942   1.000000
   83       -5.562546   1.000000
   84       -5.552893   1.000000
   85       -5.530871   1.000000
   86       -5.510567   1.000000
   87       -5.427130   1.000000
   88       -5.424811   1.000000
   89       -5.395762   1.000000
   90       -5.376261   1.000000
   91       -5.372058   1.000000
   92       -5.358296   1.000000
   93       -5.316427   1.000000
   94       -5.308743   1.000000
   95       -5.304152   1.000000
   96       -5.294246   1.000000
   97       -5.251697   1.000000
   98       -5.235225   1.000000
   99       -5.206497   1.000000
  100       -5.201260   1.000000
  101       -5.156800   1.000000
  102       -5.146950   1.000000
  103       -5.116223   1.000000
  104       -5.108189   1.000000
  105       -5.102038   1.000000
  106       -5.082378   1.000000
  107       -5.039956   1.000000
  108       -5.018197   1.000000
  109       -5.008682   1.000000
  110       -4.962726   1.000000
  111       -4.850358   1.000000
  112       -4.846190   1.000000
  113       -4.824236   1.000000
  114       -4.815985   1.000000
  115       -4.752751   1.000000
  116       -4.719729   1.000000
  117       -4.710869   1.000000
  118       -4.681580   1.000000
  119       -4.676664   1.000000
  120       -4.666768   1.000000
  121       -4.649229   1.000000
  122       -4.632078   1.000000
  123       -4.615499   1.000000
  124       -4.614066   1.000000
  125       -4.606231   1.000000
  126       -4.601454   1.000000
  127       -4.596973   1.000000
  128       -4.587659   1.000000
  129       -4.575266   1.000000
  130       -4.537998   1.000000
  131       -4.524588   1.000000
  132       -4.518564   1.000000
  133       -4.508697   1.000000
  134       -4.484505   1.000000
  135       -4.464622   1.000000
  136       -4.444197   1.000000
  137       -4.433726   1.000000
  138       -4.412215   1.000000
  139       -4.395720   1.000000
  140       -4.369815   1.000000
  141       -4.348959   1.000000
  142       -4.292191   1.000000
  143       -4.273259   1.000000
  144       -4.264461   1.000000
  145       -4.261035   1.000000
  146       -4.224843   1.000000
  147       -4.204243   1.000000
  148       -4.198033   1.000000
  149       -4.186011   1.000000
  150       -4.174893   1.000000
  151       -4.168236   1.000000
  152       -4.161750   1.000000
  153       -4.149614   1.000000
  154       -4.123102   1.000000
  155       -4.104429   1.000000
  156       -4.058621   1.000000
  157       -4.048602   1.000000
  158       -4.037500   1.000000
  159       -4.031846   1.000000
  160       -4.025297   1.000000
  161       -4.021195   1.000000
  162       -4.009922   1.000000
  163       -3.985428   1.000000
  164       -3.964375   1.000000
  165       -3.954134   1.000000
  166       -3.943596   1.000000
  167       -3.930242   1.000000
  168       -3.917168   1.000000
  169       -3.901386   1.000000
  170       -3.898413   1.000000
  171       -3.883323   1.000000
  172       -3.868430   1.000000
  173       -3.847825   1.000000
  174       -3.836797   1.000000
  175       -3.804275   1.000000
  176       -3.786476   1.000000
  177       -3.780594   1.000000
  178       -3.771303   1.000000
  179       -3.763394   1.000000
  180       -3.749038   1.000000
  181       -3.730458   1.000000
  182       -3.721395   1.000000
  183       -3.709727   1.000000
  184       -3.694354   1.000000
  185       -3.683732   1.000000
  186       -3.672389   1.000000
  187       -3.661579   1.000000
  188       -3.655156   1.000000
  189       -3.638431   1.000000
  190       -3.631047   1.000000
  191       -3.622753   1.000000
  192       -3.615186   1.000000
  193       -3.600220   1.000000
  194       -3.561291   1.000000
  195       -3.528587   1.000000
  196       -3.505794   1.000000
  197       -3.488878   1.000000
  198       -3.474705   1.000000
  199       -3.464506   1.000000
  200       -3.444534   1.000000
  201       -3.392154   1.000000
  202       -3.386878   1.000000
  203       -3.368301   1.000000
  204       -3.347075   1.000000
  205       -3.286121   1.000000
  206       -3.279208   1.000000
  207       -3.270193   1.000000
  208       -3.259162   1.000000
  209       -3.253953   1.000000
  210       -3.239470   1.000000
  211       -3.183166   1.000000
  212       -3.142187   1.000000
  213       -3.116412   1.000000
  214       -3.095255   1.000000
  215       -3.075756   1.000000
  216       -3.066771   1.000000
  217       -3.049607   1.000000
  218       -3.042446   1.000000
  219       -3.025550   1.000000
  220       -3.016972   1.000000
  221       -3.002312   1.000000
  222       -2.989351   1.000000
  223       -2.983020   1.000000
  224       -2.975399   1.000000
  225       -2.961578   1.000000
  226       -2.946353   1.000000
  227       -2.919974   1.000000
  228       -2.893572   1.000000
  229       -2.886385   1.000000
  230       -2.858735   1.000000
  231       -2.795577   1.000000
  232       -2.760856   1.000000
  233       -2.717758   1.000000
  234       -2.682470   1.000000
  235       -2.670431   1.000000
  236       -2.653847   1.000000
  237       -2.631175   1.000000
  238       -2.558219   1.000000
  239       -2.545030   1.000000
  240       -2.527345   1.000000
  241       -2.517264   1.000000
  242       -2.514793   1.000000
  243       -2.493636   1.000000
  244       -2.467542   1.000000
  245       -2.463732   1.000000
  246       -2.451292   1.000000
  247       -2.416130   1.000000
  248       -2.395389   1.000000
  249       -2.365014   1.000000
  250       -2.341320   1.000000
  251       -2.323127   1.000000
  252       -2.317094   1.000000
  253       -2.298893   1.000000
  254       -2.291822   1.000000
  255       -2.258939   1.000000
  256       -2.239460   1.000000
  257       -2.161483   1.000000
  258       -2.150663   1.000000
  259       -2.141871   1.000000
  260       -2.135037   1.000000
  261       -2.117774   1.000000
  262       -2.112665   1.000000
  263       -2.093187   1.000000
  264       -2.086687   1.000000
  265       -2.074707   1.000000
  266       -2.070472   1.000000
  267       -2.043844   1.000000
  268       -2.027615   1.000000
  269       -2.013758   1.000000
  270       -1.992917   1.000000
  271       -1.985194   1.000000
  272       -1.973222   1.000000
  273       -1.964560   1.000000
  274       -1.955178   1.000000
  275       -1.950299   1.000000
  276       -1.921243   1.000000
  277       -1.897282   1.000000
  278       -1.871173   1.000000
  279       -1.855430   1.000000
  280       -1.844483   1.000000
  281       -1.829766   1.000000
  282       -1.824017   1.000000
  283       -1.816059   1.000000
  284       -1.798823   1.000000
  285       -1.754202   1.000000
  286       -1.697824   1.000000
  287       -1.669294   1.000000
  288       -1.648956   1.000000
  289       -1.642844   1.000000
  290       -1.602266   1.000000
  291       -1.554663   1.000000
  292       -1.545680   1.000000
  293       -1.538105   1.000000
  294       -1.521240   1.000000
  295       -1.479826   1.000000
  296       -1.466618   1.000000
  297       -1.456763   1.000000
  298       -1.441890   1.000000
  299       -1.420465   1.000000
  300       -1.417835   1.000000
  301       -1.352866   1.000000
  302       -1.320784   1.000003
  303       -1.275146   1.000060
  304       -1.249545   1.000245
  305       -1.246136   1.000293
  306       -1.226993   1.000748
  307       -1.192477   1.003283
  308       -1.187281   1.004001
  309       -1.137298   1.018614
  310       -1.129721   1.022020
  311       -1.088092   1.035405
  312       -1.075514   1.031598
  313       -1.071109   1.028518
  314       -1.056213   1.009192
  315       -1.048777   0.993360
  316       -1.044281   0.981484
  317       -1.016856   0.866806
  318       -1.005668   0.798716
  319       -0.999627   0.757295
  320       -0.990081   0.686176
  321       -0.980856   0.612316
  322       -0.959080   0.429426
  323       -0.940750   0.282716
  324       -0.928228   0.194679
  325       -0.913328   0.108097
  326       -0.901327   0.054392
  327       -0.896313   0.036213
  328       -0.869545  -0.022816
  329       -0.814139  -0.026153
  330       -0.808174  -0.023400
  331       -0.789206  -0.015115
  332       -0.780971  -0.012067
  333       -0.776332  -0.010538
  334       -0.770151  -0.008715
  335       -0.762655  -0.006826
  336       -0.738665  -0.002833
  337       -0.712738  -0.000936
  338       -0.692767  -0.000358
  339       -0.677440  -0.000161
  340       -0.673283  -0.000129
  341       -0.634908  -0.000013
  342       -0.626764  -0.000008
  343       -0.620466  -0.000005
  344       -0.574057  -0.000000
  345       -0.560195  -0.000000
  346       -0.362618  -0.000000
  347       -0.314530  -0.000000
  348       -0.245283  -0.000000
  349       -0.008856  -0.000000
  350       -0.002975  -0.000000
  351        0.206080  -0.000000
  352        0.221543  -0.000000
  353        0.228516  -0.000000
  354        0.348181  -0.000000
  355        0.418434  -0.000000
  356        0.454383  -0.000000
  357        0.639376  -0.000000
  358        0.890393  -0.000000
  359        0.959077  -0.000000
  360        0.967404  -0.000000
  361        1.102260  -0.000000
  362        1.168199  -0.000000
  363        1.224682  -0.000000
  364        1.267842  -0.000000
  365        1.294412  -0.000000
  366        1.311616  -0.000000
  367        1.414411  -0.000000
  368        1.447057  -0.000000
  369        1.577081  -0.000000
  370        1.688601  -0.000000
  371        1.803041   0.000000
  372        1.841722   0.000000
  373        1.971057   0.000000
  374        2.053708   0.000000
  375        2.064982   0.000000
  376        2.241469   0.000000
  377        2.336870   0.000000
  378        2.596623   0.000000
  379        2.704612   0.000000
  380        2.761319   0.000000
  381        2.880629   0.000000
  382        2.900924   0.000000
  383        2.965989   0.000000
  384        3.010555   0.000000
  385        3.271765   0.000000
  386        3.345505   0.000000
  387        3.360679   0.000000
  388        3.380116   0.000000
  389        3.693605   0.000000
  390        4.140793   0.000000
  391        4.481366   0.000000
  392        4.614299   0.000000
 
  0.5000000E+00  0.8561833E-16  0.0000000E+00  0.6250000E-01
    1      -23.353031   1.000000
    2      -11.699246   1.000000
    3       -9.746741   1.000000
    4       -9.720079   1.000000
    5       -8.810646   1.000000
    6       -8.797794   1.000000
    7       -8.453630   1.000000
    8       -8.420482   1.000000
    9       -8.040665   1.000000
   10       -7.662687   1.000000
   11       -7.602892   1.000000
   12       -7.598362   1.000000
   13       -7.587869   1.000000
   14       -7.547309   1.000000
   15       -7.532031   1.000000
   16       -7.516302   1.000000
   17       -7.514892   1.000000
   18       -7.394052   1.000000
   19       -7.325606   1.000000
   20       -7.290269   1.000000
   21       -7.276218   1.000000
   22       -7.224902   1.000000
   23       -7.199482   1.000000
   24       -7.189973   1.000000
   25       -7.165421   1.000000
   26       -7.156970   1.000000
   27       -7.144844   1.000000
   28       -7.120472   1.000000
   29       -6.991155   1.000000
   30       -6.986278   1.000000
   31       -6.978787   1.000000
   32       -6.966158   1.000000
   33       -6.875912   1.000000
   34       -6.866909   1.000000
   35       -6.855815   1.000000
   36       -6.813166   1.000000
   37       -6.759413   1.000000
   38       -6.702482   1.000000
   39       -6.687925   1.000000
   40       -6.634993   1.000000
   41       -6.626969   1.000000
   42       -6.619124   1.000000
   43       -6.607754   1.000000
   44       -6.591034   1.000000
   45       -6.553297   1.000000
   46       -6.507453   1.000000
   47       -6.504911   1.000000
   48       -6.486933   1.000000
   49       -6.478130   1.000000
   50       -6.466847   1.000000
   51       -6.455334   1.000000
   52       -6.399755   1.000000
   53       -6.395984   1.000000
   54       -6.359832   1.000000
   55       -6.357124   1.000000
   56       -6.345611   1.000000
   57       -6.342268   1.000000
   58       -6.330569   1.000000
   59       -6.323192   1.000000
   60       -6.292092   1.000000
   61       -6.289992   1.000000
   62       -6.269019   1.000000
   63       -6.250878   1.000000
   64       -6.153173   1.000000
   65       -6.143736   1.000000
   66       -6.140882   1.000000
   67       -6.119592   1.000000
   68       -6.113661   1.000000
   69       -6.108066   1.000000
   70       -6.072776   1.000000
   71       -6.056567   1.000000
   72       -5.974713   1.000000
   73       -5.963051   1.000000
   74       -5.730881   1.000000
   75       -5.728641   1.000000
   76       -5.720878   1.000000
   77       -5.715049   1.000000
   78       -5.699557   1.000000
   79       -5.688153   1.000000
   80       -5.664904   1.000000
   81       -5.652252   1.000000
   82       -5.620389   1.000000
   83       -5.614618   1.000000
   84       -5.603745   1.000000
   85       -5.597842   1.000000
   86       -5.583874   1.000000
   87       -5.570755   1.000000
   88       -5.414605   1.000000
   89       -5.411868   1.000000
   90       -5.407982   1.000000
   91       -5.392510   1.000000
   92       -5.361492   1.000000
   93       -5.352957   1.000000
   94       -5.338306   1.000000
   95       -5.333232   1.000000
   96       -5.288103   1.000000
   97       -5.265041   1.000000
   98       -5.250707   1.000000
   99       -5.237443   1.000000
  100       -5.178330   1.000000
  101       -5.156526   1.000000
  102       -5.073594   1.000000
  103       -5.064584   1.000000
  104       -5.054741   1.000000
  105       -5.045515   1.000000
  106       -5.023284   1.000000
  107       -5.018866   1.000000
  108       -5.009063   1.000000
  109       -5.004450   1.000000
  110       -4.974831   1.000000
  111       -4.968361   1.000000
  112       -4.818426   1.000000
  113       -4.812633   1.000000