       N       E                     dE             d eps       ncg     rms          rms(c)
DAV:   1     0.425991402460E+04    0.42599E+04   -0.23777E+05  7928   0.112E+03
DAV:   2    -0.259774048579E+02   -0.42859E+04   -0.39443E+04  9816   0.255E+02
DAV:   3    -0.397795276389E+03   -0.37182E+03   -0.34011E+03  8992   0.723E+01
DAV:   4    -0.416316137026E+03   -0.18521E+02   -0.17099E+02 10760   0.143E+01
DAV:   5    -0.416840421569E+03   -0.52428E+00   -0.51642E+00  9768   0.247E+00    0.823E+01
RMM:   6    -0.404336648753E+03    0.12504E+02   -0.79552E+01  8237   0.140E+01    0.625E+01
RMM:   7    -0.493576915182E+03   -0.89240E+02   -0.17001E+02  8446   0.148E+01    0.802E+01
RMM:   8    -0.440611296187E+03    0.52966E+02   -0.73852E+01  8207   0.104E+01    0.581E+01
RMM:   9    -0.427035623655E+03    0.13576E+02   -0.51576E+01  8268   0.845E+00    0.496E+01
RMM:  10    -0.414578890423E+03    0.12457E+02   -0.38465E+01  8321   0.722E+00    0.428E+01
RMM:  11    -0.396246567560E+03    0.18332E+02   -0.80103E+00  8056   0.363E+00    0.250E+01
RMM:  12    -0.393109953062E+03    0.31366E+01   -0.45180E+00  8106   0.267E+00    0.191E+01
RMM:  13    -0.391393338103E+03    0.17166E+01   -0.27353E+00  8249   0.198E+00    0.138E+01
RMM:  14    -0.389967661702E+03    0.14257E+01   -0.11629E+00  8242   0.130E+00    0.784E+00
RMM:  15    -0.389766689146E+03    0.20097E+00   -0.40548E-01  8454   0.756E-01    0.570E+00
RMM:  16    -0.389769677017E+03   -0.29879E-02   -0.22081E-01  8384   0.559E-01    0.477E+00
RMM:  17    -0.389736075423E+03    0.33602E-01   -0.13744E-01  8248   0.463E-01    0.415E+00
RMM:  18    -0.389639907602E+03    0.96168E-01   -0.92575E-02  8088   0.388E-01    0.260E+00
RMM:  19    -0.389598912161E+03    0.40995E-01   -0.66869E-02  8179   0.322E-01    0.166E+00
RMM:  20    -0.389593830226E+03    0.50819E-02   -0.22874E-02  8391   0.183E-01    0.147E+00
RMM:  21    -0.389584278024E+03    0.95522E-02   -0.10845E-02  8159   0.133E-01    0.878E-01
RMM:  22    -0.389580522975E+03    0.37550E-02   -0.50052E-03  8185   0.906E-02    0.739E-01
RMM:  23    -0.389577265407E+03    0.32576E-02   -0.24641E-03  8306   0.612E-02    0.567E-01
RMM:  24    -0.389575550581E+03    0.17148E-02   -0.15742E-03  8341   0.465E-02    0.431E-01
RMM:  25    -0.389574525174E+03    0.10254E-02   -0.94570E-04  8375   0.353E-02    0.298E-01
RMM:  26    -0.389574127553E+03    0.39762E-03   -0.30959E-04  8608   0.204E-02    0.223E-01
RMM:  27    -0.389573864322E+03    0.26323E-03   -0.18286E-04  8316   0.160E-02    0.142E-01
RMM:  28    -0.389573785289E+03    0.79033E-04   -0.15977E-04  8243   0.150E-02    0.684E-02
RMM:  29    -0.389573866515E+03   -0.81227E-04   -0.43020E-05  6043   0.798E-03    0.704E-02
RMM:  30    -0.389573955654E+03   -0.89139E-04   -0.29485E-05  5246   0.663E-03    0.593E-02
RMM:  31    -0.389574012735E+03   -0.57081E-04   -0.16222E-05  4770   0.504E-03    0.385E-02
RMM:  32    -0.389574087837E+03   -0.75102E-04   -0.13474E-05  4677   0.435E-03    0.236E-02
RMM:  33    -0.389574219231E+03   -0.13139E-03   -0.13119E-05  4688   0.414E-03    0.289E-02
RMM:  34    -0.389574293936E+03   -0.74705E-04   -0.61937E-06  4619   0.287E-03    0.160E-02
RMM:  35    -0.389574330985E+03   -0.37049E-04   -0.23888E-06  3438   0.171E-03    0.131E-02
RMM:  36    -0.389574371184E+03   -0.40199E-04   -0.15719E-06  2724   0.146E-03    0.976E-03
RMM:  37    -0.389574411395E+03   -0.40211E-04   -0.15857E-06  3003   0.145E-03    0.850E-03
RMM:  38    -0.389574471406E+03   -0.60011E-04   -0.26945E-06  3703   0.171E-03    0.474E-03
RMM:  39    -0.389574539781E+03   -0.68375E-04   -0.50673E-06  4079   0.205E-03    0.521E-03
RMM:  40    -0.389574556262E+03   -0.16480E-04   -0.13128E-06  2088   0.116E-03    0.523E-03
RMM:  41    -0.389574574301E+03   -0.18039E-04   -0.11249E-06  2118   0.120E-03    0.240E-03
RMM:  42    -0.389574582870E+03   -0.85691E-05   -0.51878E-07  1608   0.111E-03
   1 F= -.38957458E+03 E0= -.38955886E+03  d E =-.471594E-01
