 vasp.5.4.4.18Apr17-6-g9f103f2a35 (build May 23 2022 10:35:18) complex          
  
 executed on           IFC18_impi date 2023.06.22  02:15:34
 running on   64 total cores
 distrk:  each k-point on   64 cores,    1 groups
 distr:  one band on NCORES_PER_BAND=  16 cores,    4 groups


--------------------------------------------------------------------------------------------------------


 INCAR:
 POTCAR:    PAW_PBE Pt 04Feb2005                  
 POTCAR:    PAW_PBE O 08Apr2002                   
 POTCAR:    PAW_PBE C 08Apr2002                   
 POTCAR:    PAW_PBE H 15Jun2001                   
 POTCAR:    PAW_PBE Pt 04Feb2005                  
   VRHFIN =Pt: s1d9                                                             
   LEXCH  = PE                                                                  
   EATOM  =   729.1176 eV,   53.5886 Ry                                         
                                                                                
   TITEL  = PAW_PBE Pt 04Feb2005                                                
   LULTRA =        F    use ultrasoft PP ?                                      
   IUNSCR =        1    unscreen: 0-lin 1-nonlin 2-no                           
   RPACOR =    2.330    partial core radius                                     
   POMASS =  195.080; ZVAL   =   10.000    mass and valenz                      
   RCORE  =    2.600    outmost cutoff radius                                   
   RWIGS  =    2.750; RWIGS  =    1.455    wigner-seitz radius (au A)           
   ENMAX  =  230.283; ENMIN  =  172.712 eV                                      
   ICORE  =        3    local potential                                         
   LCOR   =        T    correct aug charges                                     
   LPAW   =        T    paw PP                                                  
   EAUG   =  358.966                                                            
   DEXC   =    0.000                                                            
   RMAX   =    2.658    core radius for proj-oper                               
   RAUG   =    1.300    factor for augmentation sphere                          
   RDEP   =    2.761    radius for radial grids                                 
   RDEPT  =    2.203    core radius for aug-charge                              
                                                                                
   Atomic configuration                                                         
   16 entries                                                                   
     n  l   j            E        occ.                                          
     1  0  0.50    -78401.1885   2.0000                                         
     2  0  0.50    -13770.7750   2.0000                                         
     2  1  1.50    -11931.0468   6.0000                                         
     3  0  0.50     -3234.7234   2.0000                                         
     3  1  1.50     -2699.2216   6.0000                                         
     3  2  2.50     -2119.5714  10.0000                                         
     4  0  0.50      -695.1528   2.0000                                         
     4  1  1.50      -519.6034   6.0000                                         
     4  2  2.50      -306.6786  10.0000                                         
     4  3  3.50       -70.1041  14.0000                                         
     5  0  0.50      -101.7747   2.0000                                         
     5  1  1.50       -55.9873   6.0000                                         
     5  2  2.50        -6.1423   9.0000                                         
     6  0  0.50        -5.6573   1.0000                                         
     6  1  1.50        -6.8029   0.0000                                         
     5  3  2.50        -1.3606   0.0000                                         
   Description                                                                  
     l       E           TYP  RCUT    TYP  RCUT                                 
     2     -6.1423404     23  2.500                                             
     2     -7.5029230     23  2.500                                             
     0     -5.6573207     23  2.500                                             
     0      0.7416693     23  2.500                                             
     1     -2.7211652     23  2.600                                             
     1     20.4087390     23  2.600                                             
     3     -1.3605826     23  2.500                                             
  local pseudopotential read in
  partial core-charges read in
  partial kinetic energy density read in
  atomic valenz-charges read in
  non local Contribution for L=           2  read in
    real space projection operators read in
  non local Contribution for L=           2  read in
    real space projection operators read in
  non local Contribution for L=           0  read in
    real space projection operators read in
  non local Contribution for L=           0  read in
    real space projection operators read in
  non local Contribution for L=           1  read in
    real space projection operators read in
  non local Contribution for L=           1  read in
    real space projection operators read in
    PAW grid and wavefunctions read in
 
   number of l-projection  operators is LMAX  =           6
   number of lm-projection operators is LMMAX =          18
 
 POTCAR:    PAW_PBE O 08Apr2002                   
   VRHFIN =O: s2p4                                                              
   LEXCH  = PE                                                                  
   EATOM  =   432.3788 eV,   31.7789 Ry                                         
                                                                                
   TITEL  = PAW_PBE O 08Apr2002                                                 
   LULTRA =        F    use ultrasoft PP ?                                      
   IUNSCR =        1    unscreen: 0-lin 1-nonlin 2-no                           
   RPACOR =    1.200    partial core radius                                     
   POMASS =   16.000; ZVAL   =    6.000    mass and valenz                      
   RCORE  =    1.520    outmost cutoff radius                                   
   RWIGS  =    1.550; RWIGS  =    0.820    wigner-seitz radius (au A)           
   ENMAX  =  400.000; ENMIN  =  300.000 eV                                      
   ICORE  =        2    local potential                                         
   LCOR   =        T    correct aug charges                                     
   LPAW   =        T    paw PP                                                  
   EAUG   =  605.392                                                            
   DEXC   =    0.000                                                            
   RMAX   =    1.553    core radius for proj-oper                               
   RAUG   =    1.300    factor for augmentation sphere                          
   RDEP   =    1.550    radius for radial grids                                 
   RDEPT  =    1.329    core radius for aug-charge                              
                                                                                
   Atomic configuration                                                         
    4 entries                                                                   
     n  l   j            E        occ.                                          
     1  0  0.50      -514.6923   2.0000                                         
     2  0  0.50       -23.9615   2.0000                                         
     2  1  0.50        -9.0305   4.0000                                         
     3  2  1.50        -9.5241   0.0000                                         
   Description                                                                  
     l       E           TYP  RCUT    TYP  RCUT                                 
     0    -23.9615318     23  1.200                                             
     0     -9.5240782     23  1.200                                             
     1     -9.0304911     23  1.520                                             
     1      8.1634956     23  1.520                                             
     2     -9.5240782      7  1.500                                             
  local pseudopotential read in
  partial core-charges read in
  partial kinetic energy density read in
  kinetic energy density of atom read in
  atomic valenz-charges read in
  non local Contribution for L=           0  read in
    real space projection operators read in
  non local Contribution for L=           0  read in
    real space projection operators read in
  non local Contribution for L=           1  read in
    real space projection operators read in
  non local Contribution for L=           1  read in
    real space projection operators read in
    PAW grid and wavefunctions read in
 
   number of l-projection  operators is LMAX  =           4
   number of lm-projection operators is LMMAX =           8
 
 POTCAR:    PAW_PBE C 08Apr2002                   
   VRHFIN =C: s2p2                                                              
   LEXCH  = PE                                                                  
   EATOM  =   147.1560 eV,   10.8157 Ry                                         
                                                                                
   TITEL  = PAW_PBE C 08Apr2002                                                 
   LULTRA =        F    use ultrasoft PP ?                                      
   IUNSCR =        1    unscreen: 0-lin 1-nonlin 2-no                           
   RPACOR =    1.200    partial core radius                                     
   POMASS =   12.011; ZVAL   =    4.000    mass and valenz                      
   RCORE  =    1.500    outmost cutoff radius                                   
   RWIGS  =    1.630; RWIGS  =    0.863    wigner-seitz radius (au A)           
   ENMAX  =  400.000; ENMIN  =  300.000 eV                                      
   ICORE  =        2    local potential                                         
   LCOR   =        T    correct aug charges                                     
   LPAW   =        T    paw PP                                                  
   EAUG   =  644.873                                                            
   DEXC   =    0.000                                                            
   RMAX   =    1.529    core radius for proj-oper                               
   RAUG   =    1.300    factor for augmentation sphere                          
   RDEP   =    1.501    radius for radial grids                                 
   RDEPT  =    1.300    core radius for aug-charge                              
                                                                                
   Atomic configuration                                                         
    4 entries                                                                   
     n  l   j            E        occ.                                          
     1  0  0.50      -273.3789   2.0000                                         
     2  0  0.50       -13.7508   2.0000                                         
     2  1  0.50        -5.2854   2.0000                                         
     3  2  1.50        -5.4423   0.0000                                         
   Description                                                                  
     l       E           TYP  RCUT    TYP  RCUT                                 
     0    -13.7508458     23  1.200                                             
     0     -8.2022199     23  1.200                                             
     1     -5.2854383     23  1.500                                             
     1     34.0145650     23  1.500                                             
     2     -5.4423304      7  1.500                                             
  local pseudopotential read in
  partial core-charges read in
  partial kinetic energy density read in
  atomic valenz-charges read in
  non local Contribution for L=           0  read in
    real space projection operators read in
  non local Contribution for L=           0  read in
    real space projection operators read in
  non local Contribution for L=           1  read in
    real space projection operators read in
  non local Contribution for L=           1  read in
    real space projection operators read in
    PAW grid and wavefunctions read in
 
   number of l-projection  operators is LMAX  =           4
   number of lm-projection operators is LMMAX =           8
 
 POTCAR:    PAW_PBE H 15Jun2001                   
   VRHFIN =H: ultrasoft test                                                    
   LEXCH  = PE                                                                  
   EATOM  =    12.4884 eV,    0.9179 Ry                                         
                                                                                
   TITEL  = PAW_PBE H 15Jun2001                                                 
   LULTRA =        F    use ultrasoft PP ?                                      
   IUNSCR =        0    unscreen: 0-lin 1-nonlin 2-no                           
   RPACOR =    0.000    partial core radius                                     
   POMASS =    1.000; ZVAL   =    1.000    mass and valenz                      
   RCORE  =    1.100    outmost cutoff radius                                   
   RWIGS  =    0.700; RWIGS  =    0.370    wigner-seitz radius (au A)           
   ENMAX  =  250.000; ENMIN  =  200.000 eV                                      
   RCLOC  =    0.701    cutoff for local pot                                    
   LCOR   =        T    correct aug charges                                     
   LPAW   =        T    paw PP                                                  
   EAUG   =  400.000                                                            
   RMAX   =    1.123    core radius for proj-oper                               
   RAUG   =    1.200    factor for augmentation sphere                          
   RDEP   =    1.112    radius for radial grids                                 
   RDEPT  =    0.926    core radius for aug-charge                              
                                                                                
   Atomic configuration                                                         
    2 entries                                                                   
     n  l   j            E        occ.                                          
     1  0  0.50        -6.4927   1.0000                                         
     2  1  0.50        -3.4015   0.0000                                         
   Description                                                                  
     l       E           TYP  RCUT    TYP  RCUT                                 
     0     -6.4927494     23  1.100                                             
     0      6.8029130     23  1.100                                             
     1     -4.0817478     23  1.100                                             
  local pseudopotential read in
  atomic valenz-charges read in
  non local Contribution for L=           0  read in
    real space projection operators read in
  non local Contribution for L=           0  read in
    real space projection operators read in
  non local Contribution for L=           1  read in
    real space projection operators read in
    PAW grid and wavefunctions read in
 
   number of l-projection  operators is LMAX  =           3
   number of lm-projection operators is LMMAX =           5
 
 Optimization of the real space projectors (new method)

 maximal supplied QI-value         = 14.36
 optimisation between [QCUT,QGAM] = [ 10.20, 20.39] = [ 29.12,116.47] Ry 
 Optimized for a Real-space Cutoff    1.42 Angstroem

   l    n(q)    QCUT    max X(q) W(low)/X(q) W(high)/X(q)  e(spline) 
   2      8    10.197    66.195    0.74E-03    0.54E-03    0.15E-06
   2      8    10.197    64.643    0.76E-03    0.55E-03    0.15E-06
   0      9    10.197    95.520    0.30E-03    0.12E-03    0.68E-07
   0      9    10.197    63.403    0.29E-03    0.12E-03    0.65E-07
   1      8    10.197    19.961    0.11E-02    0.12E-02    0.15E-06
   1      8    10.197    13.289    0.93E-03    0.10E-02    0.13E-06
 Optimization of the real space projectors (new method)

 maximal supplied QI-value         = 24.76
 optimisation between [QCUT,QGAM] = [ 10.15, 20.30] = [ 28.85,115.39] Ry 
 Optimized for a Real-space Cutoff    1.19 Angstroem

   l    n(q)    QCUT    max X(q) W(low)/X(q) W(high)/X(q)  e(spline) 
   0      7    10.150    20.381    0.86E-03    0.53E-03    0.15E-06
   0      7    10.150    15.268    0.92E-03    0.58E-03    0.15E-06
   1      7    10.150     5.964    0.13E-02    0.15E-02    0.11E-06
   1      7    10.150     5.382    0.10E-02    0.13E-02    0.10E-06
 Optimization of the real space projectors (new method)

 maximal supplied QI-value         = 25.13
 optimisation between [QCUT,QGAM] = [ 10.05, 20.36] = [ 28.30,116.06] Ry 
 Optimized for a Real-space Cutoff    1.12 Angstroem

   l    n(q)    QCUT    max X(q) W(low)/X(q) W(high)/X(q)  e(spline) 
   0      7    10.053   115.676    0.98E-03    0.17E-02    0.83E-07
   0      7    10.053    87.132    0.97E-03    0.17E-02    0.82E-07
   1      6    10.053     4.429    0.15E-02    0.82E-03    0.11E-06
   1      6    10.053     2.733    0.11E-02    0.55E-03    0.12E-06
 Optimization of the real space projectors (new method)

 maximal supplied QI-value         = 34.20
 optimisation between [QCUT,QGAM] = [  9.92, 20.18] = [ 27.55,114.04] Ry 
 Optimized for a Real-space Cutoff    1.06 Angstroem

   l    n(q)    QCUT    max X(q) W(low)/X(q) W(high)/X(q)  e(spline) 
   0      6     9.919    19.460    0.17E-02    0.71E-03    0.15E-06
   0      6     9.919    12.209    0.17E-02    0.71E-03    0.14E-06
   1      6     9.919     4.655    0.35E-03    0.20E-02    0.14E-06
  PAW_PBE Pt 04Feb2005                  :
 energy of atom  1       EATOM= -729.1176
 kinetic energy error for atom=    0.0056 (will be added to EATOM!!)
  PAW_PBE O 08Apr2002                   :
 energy of atom  2       EATOM= -432.3788
 kinetic energy error for atom=    0.1156 (will be added to EATOM!!)
  PAW_PBE C 08Apr2002                   :
 energy of atom  3       EATOM= -147.1560
 kinetic energy error for atom=    0.0288 (will be added to EATOM!!)
  PAW_PBE H 15Jun2001                   :
 energy of atom  4       EATOM=  -12.4884
 kinetic energy error for atom=    0.0098 (will be added to EATOM!!)
 
 
 POSCAR: Pt  O  C  H                             
  positions in cartesian coordinates
  No initial velocities read in
 exchange correlation table for  LEXCH =        8
   RHO(1)=    0.500       N(1)  =     2000
   RHO(2)=  100.500       N(2)  =     4000

 VTST: version 3.2, (02/03/18)

 CHAIN: initializing optimizer
 
 OPT: Using VASP Conjugate-Gradient optimizer
 CHAIN: Read ICHAIN            0
 
 POSCAR: Pt  O  C  H                             
  positions in cartesian coordinates
  No initial velocities read in
 


--------------------------------------------------------------------------------------------------------


 ion  position               nearest neighbor table
   1  0.083  0.333  0.391-   7 2.80  38 2.80   8 2.80   2 2.80   3 2.80  18 2.80  35 2.80   4 2.80
                            52 2.80
   2  0.083  0.083  0.391-  24 2.80  37 2.80   7 2.80  17 2.80  19 2.80   4 2.80  35 2.80  36 2.80
                             1 2.80
   3  0.333  0.333  0.391-   5 2.80   8 2.80   6 2.80   4 2.80   1 2.80  18 2.80  34 2.80  20 2.80
                            33 2.80
   4  0.333  0.083  0.391-   7 2.80  22 2.80   5 2.80  19 2.80  49 2.80   3 2.80   1 2.80  34 2.80
                             2 2.80
   5  0.417  0.167  0.464-  11 2.78  10 2.79   3 2.80  34 2.80   4 2.80   6 2.80   7 2.80  22 2.80
                             8 2.80  39 2.80  56 2.80  12 2.82
   6  0.417  0.417  0.464-  27 2.80  25 2.80  20 2.80  33 2.80   3 2.80  23 2.80   8 2.80   5 2.80
                            21 2.80  39 2.80  40 2.80  12 2.82
   7  0.167  0.167  0.464-  10 2.78   9 2.78  44 2.80   4 2.80   1 2.80   2 2.80   8 2.80  22 2.80
                            24 2.80  37 2.80   5 2.80  38 2.80
   8  0.167  0.417  0.464-  25 2.78  10 2.78  59 2.80   3 2.80  18 2.80   1 2.80   6 2.80  23 2.80
                             7 2.80   5 2.80  53 2.80  38 2.80
   9  0.249  1.000  0.536-  24 2.77   7 2.78  22 2.79  16 2.80  43 2.80  10 2.80  11 2.80  28 2.80
                            26 2.80  44 2.81  31 2.82  14 2.83
  10  0.249  0.250  0.536-   7 2.78   8 2.78   5 2.79  25 2.80  11 2.80  15 2.80   9 2.80  59 2.80
                            12 2.81  44 2.81  16 2.82  13 2.84
  11  0.499  0.000  0.535-  22 2.77   5 2.78  56 2.79  46 2.79  41 2.80  10 2.80   9 2.80  58 2.81
                            28 2.81  12 2.81  61 2.82  16 2.84
  12  0.499  0.251  0.537-  27 2.76  42 2.78  46 2.79  25 2.80  41 2.81  10 2.81  11 2.81  15 2.82
                             6 2.82   5 2.82  39 2.83  45 2.89
  13  0.080  0.332  0.609-  47 2.78  15 2.78  16 2.79  30 2.80  44 2.81  14 2.81  64 2.81  59 2.82
                            10 2.84
  14  0.080  0.082  0.609-  31 2.78  47 2.80  16 2.80  29 2.80  48 2.80  43 2.80  13 2.81  44 2.82
                             9 2.83
  15  0.327  0.333  0.609-  13 2.78  16 2.79  30 2.80  10 2.80  45 2.80  12 2.82  25 2.82  32 2.82
                            46 2.82
  16  0.329  0.083  0.609-  46 2.79  15 2.79  13 2.79   9 2.80  14 2.80  61 2.80  31 2.80  10 2.82
                            11 2.84
  17  0.083  0.833  0.391-  54 2.80  23 2.80  24 2.80   2 2.80  36 2.80  51 2.80  19 2.80  20 2.80
                            18 2.80
  18  0.083  0.583  0.391-   8 2.80  53 2.80  23 2.80   3 2.80  52 2.80   1 2.80  51 2.80  17 2.80
                            20 2.80
  19  0.333  0.833  0.391-  24 2.80  21 2.80  22 2.80   4 2.80   2 2.80  17 2.80  49 2.80  20 2.80
                            50 2.80
  20  0.333  0.583  0.391-   6 2.80  23 2.80  21 2.80  33 2.80  50 2.80  19 2.80   3 2.80  18 2.80
                            17 2.80
  21  0.417  0.667  0.464-  28 2.76  26 2.79  19 2.80  50 2.80  20 2.80  55 2.80   6 2.80  22 2.80
                            40 2.80  23 2.80  24 2.80  27 2.83
  22  0.417  0.917  0.464-  11 2.77  28 2.78   9 2.79   4 2.80  49 2.80  19 2.80  55 2.80  24 2.80
                             7 2.80   5 2.80  21 2.80  56 2.80
  23  0.167  0.667  0.464-  26 2.77  25 2.79  60 2.80  20 2.80  17 2.80  18 2.80  24 2.80   8 2.80
                             6 2.80  54 2.80  21 2.80  53 2.80
  24  0.167  0.917  0.464-   9 2.77  26 2.78  43 2.78   2 2.80  19 2.80  17 2.80  22 2.80  23 2.80
                             7 2.80  37 2.80  21 2.80  54 2.80
  25  0.248  0.500  0.536-   8 2.78  32 2.79  23 2.79  59 2.80  27 2.80  10 2.80  60 2.80   6 2.80
                            12 2.80  26 2.81  15 2.82  30 2.84
  26  0.249  0.750  0.535-  23 2.77  24 2.78  21 2.79  28 2.80  31 2.80   9 2.80  43 2.81  32 2.81
                            25 2.81  60 2.81  27 2.81  29 2.84
  27  0.498  0.497  0.537-  12 2.76  62 2.77  42 2.78  25 2.80   6 2.80  57 2.81  32 2.81  26 2.81
                            40 2.83  28 2.83  21 2.83  45 2.92
  28  0.498  0.750  0.535-  21 2.76  22 2.78  55 2.78  62 2.78  26 2.80  58 2.80   9 2.80  57 2.81
                            61 2.81  11 2.81  27 2.83  31 2.85
  29  0.079  0.833  0.609-  48 2.76  32 2.77  31 2.80  60 2.80  14 2.80  30 2.81  63 2.81  43 2.83
                            26 2.84
  30  0.078  0.583  0.609-  32 2.79  64 2.79  63 2.79  15 2.80  59 2.80  13 2.80  29 2.81  60 2.82
                            25 2.84
  31  0.328  0.834  0.609-  62 2.77  14 2.78  29 2.80  32 2.80  26 2.80  16 2.80  61 2.80   9 2.82
                            28 2.85
  32  0.326  0.585  0.609-  29 2.77  30 2.79  25 2.79  31 2.80  26 2.81  27 2.81  15 2.82  62 2.82
                            45 2.83
  33  0.583  0.333  0.391-  39 2.80   6 2.80  40 2.80  35 2.80  36 2.80  20 2.80  50 2.80  34 2.80
                             3 2.80
  34  0.583  0.083  0.391-   5 2.80  56 2.80  39 2.80  49 2.80  51 2.80   3 2.80  36 2.80   4 2.80
                            33 2.80
  35  0.833  0.333  0.391-  37 2.80  40 2.80  38 2.80  33 2.80  50 2.80   1 2.80  36 2.80   2 2.80
                            52 2.80
  36  0.833  0.083  0.391-  39 2.80  54 2.80  37 2.80  51 2.80  17 2.80  33 2.80  34 2.80  35 2.80
                             2 2.80
  37  0.917  0.167  0.464-  43 2.78  44 2.78   2 2.80  35 2.80  36 2.80  38 2.80  39 2.80  40 2.80
                            24 2.80   7 2.80  54 2.80  42 2.82
  38  0.917  0.417  0.464-  59 2.78  44 2.79  52 2.80   1 2.80  35 2.80  40 2.80  37 2.80  55 2.80
                            53 2.80   7 2.80   8 2.80  57 2.80
  39  0.667  0.167  0.464-  41 2.78  42 2.79  33 2.80  36 2.80  34 2.80  37 2.80  40 2.80   6 2.80
                             5 2.80  54 2.80  56 2.80  12 2.83
  40  0.667  0.417  0.464-  57 2.78  42 2.80  50 2.80  35 2.80  33 2.80  38 2.80  55 2.80  21 2.80
                            37 2.80   6 2.80  39 2.80  27 2.83
  41  0.748  1.000  0.535-  48 2.77  56 2.77  39 2.78  54 2.79  11 2.80  58 2.80  42 2.80  60 2.81
                            12 2.81  43 2.81  63 2.83  46 2.83
  42  0.747  0.250  0.536-  12 2.78  27 2.78  39 2.79  57 2.80  48 2.80  40 2.80  41 2.80  44 2.81
                            43 2.82  47 2.82  37 2.82  45 2.96
  43  0.999  1.000  0.535-  54 2.77  37 2.78  24 2.78  48 2.80  44 2.80   9 2.80  14 2.80  26 2.81
                            60 2.81  41 2.81  42 2.82  29 2.83
  44  0.998  0.250  0.536-  37 2.78  38 2.79  43 2.80  57 2.80   7 2.80  59 2.80  13 2.81   9 2.81
                            10 2.81  42 2.81  14 2.82  47 2.83
  45  0.577  0.333  0.615-  66 1.97  15 2.80  46 2.82  32 2.83  62 2.86  47 2.86  48 2.87  12 2.89
                            27 2.92  42 2.96
  46  0.579  0.081  0.609-  61 2.78  11 2.79  16 2.79  12 2.79  63 2.80  15 2.82  45 2.82  48 2.83
                            41 2.83
  47  0.832  0.333  0.610-  67 2.03  13 2.78  14 2.80  64 2.80  42 2.82  57 2.82  44 2.83  48 2.86
                            45 2.86  62 2.86
  48  0.832  0.078  0.608-  29 2.76  41 2.77  63 2.77  43 2.80  42 2.80  14 2.80  46 2.83  47 2.86
                            45 2.87
  49  0.583  0.833  0.391-  22 2.80  55 2.80  56 2.80  34 2.80   4 2.80  19 2.80  51 2.80  50 2.80
                            52 2.80
  50  0.583  0.583  0.391-  40 2.80  21 2.80  55 2.80  52 2.80  35 2.80  20 2.80  33 2.80  49 2.80
                            19 2.80
  51  0.833  0.833  0.391-  56 2.80  53 2.80  54 2.80  36 2.80  34 2.80  49 2.80  17 2.80  18 2.80
                            52 2.80
  52  0.833  0.583  0.391-  38 2.80  55 2.80  53 2.80  50 2.80  18 2.80  35 2.80   1 2.80  49 2.80
                            51 2.80
  53  0.917  0.667  0.464-  60 2.78  59 2.79  58 2.79  51 2.80  18 2.80  52 2.80  56 2.80  38 2.80
                            55 2.80   8 2.80  54 2.80  23 2.80
  54  0.917  0.917  0.464-  43 2.77  41 2.79  60 2.79  36 2.80  17 2.80  51 2.80  24 2.80  23 2.80
                            37 2.80  56 2.80  39 2.80  53 2.80
  55  0.667  0.667  0.464-  58 2.77  28 2.78  57 2.80  49 2.80  52 2.80  50 2.80  21 2.80  40 2.80
                            22 2.80  38 2.80  53 2.80  56 2.80
  56  0.667  0.917  0.464-  41 2.77  11 2.79  58 2.79  51 2.80  34 2.80  49 2.80  53 2.80  39 2.80
                            22 2.80  54 2.80   5 2.80  55 2.80
  57  0.748  0.499  0.536-  40 2.78  42 2.80  64 2.80  44 2.80  55 2.80  38 2.80  28 2.81  58 2.81
                            59 2.81  27 2.81  62 2.82  47 2.82
  58  0.748  0.750  0.536-  55 2.77  56 2.79  53 2.79  63 2.80  28 2.80  41 2.80  60 2.80  11 2.81
                            59 2.81  64 2.81  57 2.81  61 2.83
  59  0.999  0.500  0.536-  38 2.78  53 2.79  25 2.80   8 2.80  30 2.80  60 2.80  10 2.80  44 2.80
                            58 2.81  57 2.81  13 2.82  64 2.82
  60  0.998  0.750  0.536-  53 2.78  54 2.79  29 2.80  23 2.80  25 2.80  59 2.80  58 2.80  41 2.81
                            43 2.81  26 2.81  30 2.82  63 2.83
  61  0.578  0.834  0.609-  62 2.77  46 2.78  16 2.80  31 2.80  63 2.81  64 2.81  28 2.81  11 2.82
                            58 2.83
  62  0.576  0.588  0.608-  61 2.77  31 2.77  27 2.77  28 2.78  64 2.81  57 2.82  32 2.82  45 2.86
                            47 2.86
  63  0.829  0.832  0.609-  48 2.77  64 2.79  30 2.79  58 2.80  46 2.80  61 2.81  29 2.81  60 2.83
                            41 2.83
  64  0.829  0.584  0.609-  63 2.79  30 2.79  57 2.80  47 2.80  61 2.81  58 2.81  62 2.81  13 2.81
                            59 2.82
  65  0.599  0.332  0.708-  66 1.19
  66  0.640  0.333  0.673-  65 1.19  67 1.21  45 1.97
  67  0.746  0.334  0.667-  66 1.21  47 2.03
 

IMPORTANT INFORMATION: All symmetrisations will be switched off!
NOSYMM: (Re-)initialisation of all symmetry stuff for point group C_1.

 
 
 KPOINTS: KPOINTS created by Atomic Simulation Env

Automatic generation of k-mesh.
Space group operators:
 irot       det(A)        alpha          n_x          n_y          n_z        tau_x        tau_y        tau_z
    1     1.000000     0.000000     1.000000     0.000000     0.000000     0.000000     0.000000     0.000000
 
 Subroutine IBZKPT returns following result:
 ===========================================
 
 Found     10 irreducible k-points:
 
 Following reciprocal coordinates:
            Coordinates               Weight
  0.000000  0.000000  0.000000      1.000000
  0.250000  0.000000  0.000000      2.000000
  0.500000  0.000000  0.000000      1.000000
  0.000000  0.250000  0.000000      2.000000
  0.250000  0.250000  0.000000      2.000000
  0.500000  0.250000  0.000000      2.000000
 -0.250000  0.250000  0.000000      2.000000
  0.000000  0.500000  0.000000      1.000000
  0.250000  0.500000  0.000000      2.000000
  0.500000  0.500000  0.000000      1.000000
 
 Following cartesian coordinates:
            Coordinates               Weight
  0.000000  0.000000  0.000000      1.000000
  0.022293 -0.012871  0.000000      2.000000
  0.044586 -0.025741  0.000000      1.000000
  0.000000  0.025741  0.000000      2.000000
  0.022293  0.012871  0.000000      2.000000
  0.044586  0.000000  0.000000      2.000000
 -0.022293  0.038612  0.000000      2.000000
  0.000000  0.051483  0.000000      1.000000
  0.022293  0.038612  0.000000      2.000000
  0.044586  0.025741  0.000000      1.000000
 


--------------------------------------------------------------------------------------------------------




 Dimension of arrays:
   k-points           NKPTS =     10   k-points in BZ     NKDIM =     10   number of bands    NBANDS=    392
   number of dos      NEDOS =    301   number of ions     NIONS =     67
   non local maximal  LDIM  =      6   non local SUM 2l+1 LMDIM =     18
   total plane-waves  NPLWV = 501760
   max r-space proj   IRMAX =   1814   max aug-charges    IRDMAX=   5699
   dimension x,y,z NGX =    56 NGY =   56 NGZ =  160
   dimension x,y,z NGXF=    96 NGYF=   96 NGZF=  270
   support grid    NGXF=    96 NGYF=   96 NGZF=  270
   ions per type =              64   1   1   1
   NGX,Y,Z   is equivalent  to a cutoff of   8.30,  8.30,  8.46 a.u.
   NGXF,Y,Z  is equivalent  to a cutoff of  14.23, 14.23, 14.27 a.u.

 SYSTEM =  Pt                                      
 POSCAR =  Pt  O  C  H                             

 Startparameter for this run:
   NWRITE =      2    write-flag & timer
   PREC   = med       normal or accurate (medium, high low for compatibility)
   ISTART =      0    job   : 0-new  1-cont  2-samecut
   ICHARG =      2    charge: 1-file 2-atom 10-const
   ISPIN  =      1    spin polarized calculation?
   LNONCOLLINEAR =      F non collinear calculations
   LSORBIT =      F    spin-orbit coupling
   INIWAV =      1    electr: 0-lowe 1-rand  2-diag
   LASPH  =      F    aspherical Exc in radial PAW
   METAGGA=      F    non-selfconsistent MetaGGA calc.

 Electronic Relaxation 1
   ENCUT  =  400.0 eV  29.40 Ry    5.42 a.u.  18.29 18.29 51.28*2*pi/ulx,y,z
   ENINI  =  400.0     initial cutoff
   ENAUG  =  644.9 eV  augmentation charge cutoff
   NELM   =    100;   NELMIN=  2; NELMDL= -5     # of ELM steps 
   EDIFF  = 0.1E-04   stopping-criterion for ELM
   LREAL  =      T    real-space projection
   NLSPLINE    = F    spline interpolate recip. space projectors
   LCOMPAT=      F    compatible to vasp.4.4
   GGA_COMPAT  = T    GGA compatible to vasp.4.4-vasp.4.6
   LMAXPAW     = -100 max onsite density
   LMAXMIX     =    2 max onsite mixed and CHGCAR
   VOSKOWN=      0    Vosko Wilk Nusair interpolation
   ROPT   =   -0.00200  -0.00200  -0.00200  -0.00200
 Ionic relaxation
   EDIFFG = 0.1E-03   stopping-criterion for IOM
   NSW    =      0    number of steps for IOM
   NBLOCK =      1;   KBLOCK =      1    inner block; outer block 
   IBRION =     -1    ionic relax: 0-MD 1-quasi-New 2-CG
   NFREE  =      1    steps in history (QN), initial steepest desc. (CG)
   ISIF   =      1    stress and relaxation
   IWAVPR =     10    prediction:  0-non 1-charg 2-wave 3-comb
   ISYM   =      0    0-nonsym 1-usesym 2-fastsym
   LCORR  =      T    Harris-Foulkes like correction to forces

   POTIM  = 0.5000    time-step for ionic-motion
   TEIN   =    0.0    initial temperature
   TEBEG  =    0.0;   TEEND  =   0.0 temperature during run
   SMASS  =  -3.00    Nose mass-parameter (am)
   estimated Nose-frequenzy (Omega)   =  0.10E-29 period in steps =****** mass=  -0.287E-26a.u.
   SCALEE = 1.0000    scale energy and forces
   NPACO  =    256;   APACO  = 16.0  distance and # of slots for P.C.
   PSTRESS=    0.0 pullay stress

  Mass of Ions in am
   POMASS = 195.08 16.00 12.01  1.00
  Ionic Valenz
   ZVAL   =  10.00  6.00  4.00  1.00
  Atomic Wigner-Seitz radii
   RWIGS  =  -1.00 -1.00 -1.00 -1.00
  virtual crystal weights 
   VCA    =   1.00  1.00  1.00  1.00
   NELECT =     651.0000    total number of electrons
   NUPDOWN=      -1.0000    fix difference up-down

 DOS related values:
   EMIN   =  10.00;   EMAX   =-10.00  energy-range for DOS
   EFERMI =   0.00
   ISMEAR =     1;   SIGMA  =   0.10  broadening in eV -4-tet -1-fermi 0-gaus

 Electronic relaxation 2 (details)
   IALGO  =     68    algorithm
   LDIAG  =      T    sub-space diagonalisation (order eigenvalues)
   LSUBROT=      F    optimize rotation matrix (better conditioning)
   TURBO    =      0    0=normal 1=particle mesh
   IRESTART =      0    0=no restart 2=restart with 2 vectors
   NREBOOT  =      0    no. of reboots
   NMIN     =      0    reboot dimension
   EREF     =   0.00    reference energy to select bands
   IMIX   =      4    mixing-type and parameters
     AMIX     =   0.40;   BMIX     =  1.00
     AMIX_MAG =   1.60;   BMIX_MAG =  1.00
     AMIN     =   0.10
     WC   =   100.;   INIMIX=   1;  MIXPRE=   1;  MAXMIX= -45

 Intra band minimization:
   WEIMIN = 0.0000     energy-eigenvalue tresh-hold
   EBREAK =  0.64E-08  absolut break condition
   DEPER  =   0.30     relativ break condition  

   TIME   =   0.40     timestep for ELM

  volume/ion in A,a.u.               =      51.12       344.96
  Fermi-wavevector in a.u.,A,eV,Ry     =   0.941285  1.778770 12.054989  0.886017
  Thomas-Fermi vector in A             =   2.068780
 
 Write flags
   LWAVE        =      F    write WAVECAR
   LDOWNSAMPLE  =      F    k-point downsampling of WAVECAR
   LCHARG       =      F    write CHGCAR
   LVTOT        =      F    write LOCPOT, total local potential
   LVHAR        =      F    write LOCPOT, Hartree potential only
   LELF         =      F    write electronic localiz. function (ELF)
   LORBIT       =      0    0 simple, 1 ext, 2 COOP (PROOUT), +10 PAW based schemes


 Dipole corrections
   LMONO  =      F    monopole corrections only (constant potential shift)
   LDIPOL =      F    correct potential (dipole corrections)
   IDIPOL =      0    1-x, 2-y, 3-z, 4-all directions 
   EPSILON=  1.0000000 bulk dielectric constant

 Exchange correlation treatment:
   GGA     =    --    GGA type
   LEXCH   =     8    internal setting for exchange type
   VOSKOWN=      0    Vosko Wilk Nusair interpolation
   LHFCALC =     F    Hartree Fock is set to
   LHFONE  =     F    Hartree Fock one center treatment
   AEXX    =    0.0000 exact exchange contribution

 Linear response parameters
   LEPSILON=     F    determine dielectric tensor
   LRPA    =     F    only Hartree local field effects (RPA)
   LNABLA  =     F    use nabla operator in PAW spheres
   LVEL    =     F    velocity operator in full k-point grid
   LINTERFAST=   F  fast interpolation
   KINTER  =     0    interpolate to denser k-point grid
   CSHIFT  =0.1000    complex shift for real part using Kramers Kronig
   OMEGAMAX=  -1.0    maximum frequency
   DEG_THRESHOLD= 0.2000000E-02 threshold for treating states as degnerate
   RTIME   =   -0.100 relaxation time in fs
  (WPLASMAI=    0.000 imaginary part of plasma frequency in eV, 0.658/RTIME)
   DFIELD  = 0.0000000 0.0000000 0.0000000 field for delta impulse in time
 
 Orbital magnetization related:
   ORBITALMAG=     F  switch on orbital magnetization
   LCHIMAG   =     F  perturbation theory with respect to B field
   DQ        =  0.001000  dq finite difference perturbation B field
   LLRAUG    =     F  two centre corrections for induced B field



--------------------------------------------------------------------------------------------------------


 Static calculation
 charge density and potential will be updated during run
 non-spin polarized calculation
 RMM-DIIS sequential band-by-band and
  variant of blocked Davidson during initial phase
 perform sub-space diagonalisation
    before iterative eigenvector-optimisation
 modified Broyden-mixing scheme, WC =      100.0
 initial mixing is a Kerker type mixing with AMIX =  0.4000 and BMIX =      1.0000
 Hartree-type preconditioning will be used
 using additional bands           66
 real space projection scheme for non local part
 use partial core corrections
 calculate Harris-corrections to forces 
   (improved forces if not selfconsistent)
 use gradient corrections 
 use of overlap-Matrix (Vanderbilt PP)
 Methfessel and Paxton  Order N= 1 SIGMA  =   0.10


--------------------------------------------------------------------------------------------------------


  energy-cutoff  :      400.00
  volume of cell :     3424.86
      direct lattice vectors                 reciprocal lattice vectors
    11.214400000  0.000000000  0.000000000     0.089171066 -0.051482939  0.000000000
     5.607200000  9.711955288  0.000000000     0.000000000  0.102965878  0.000000000
     0.000000000  0.000000000 31.445600000     0.000000000  0.000000000  0.031800951

  length of vectors
    11.214400000 11.214400000 31.445600000     0.102965878  0.102965878  0.031800951


 
 k-points in units of 2pi/SCALE and weight: KPOINTS created by Atomic Simulation Env
   0.00000000  0.00000000  0.00000000       0.062
   0.02229277 -0.01287073  0.00000000       0.125
   0.04458553 -0.02574147  0.00000000       0.062
   0.00000000  0.02574147  0.00000000       0.125
   0.02229277  0.01287073  0.00000000       0.125
   0.04458553  0.00000000  0.00000000       0.125
  -0.02229277  0.03861220  0.00000000       0.125
   0.00000000  0.05148294  0.00000000       0.062
   0.02229277  0.03861220  0.00000000       0.125
   0.04458553  0.02574147  0.00000000       0.062
 
 k-points in reciprocal lattice and weights: KPOINTS created by Atomic Simulation Env
   0.00000000  0.00000000  0.00000000       0.062
   0.25000000  0.00000000  0.00000000       0.125
   0.50000000  0.00000000  0.00000000       0.062
   0.00000000  0.25000000  0.00000000       0.125
   0.25000000  0.25000000  0.00000000       0.125
   0.50000000  0.25000000  0.00000000       0.125
  -0.25000000  0.25000000  0.00000000       0.125
   0.00000000  0.50000000  0.00000000       0.062
   0.25000000  0.50000000  0.00000000       0.125
   0.50000000  0.50000000  0.00000000       0.062
 
 position of ions in fractional coordinates (direct lattice) 
   0.08333000  0.33333000  0.39081000
   0.08333000  0.08333000  0.39081000
   0.33333000  0.33333000  0.39081000
   0.33333000  0.08333000  0.39081000
   0.41667000  0.16667000  0.46360000
   0.41667000  0.41667000  0.46360000
   0.16667000  0.16667000  0.46360000
   0.16667000  0.41667000  0.46360000
   0.24879911  0.99997884  0.53552724
   0.24897854  0.24980477  0.53554950
   0.49853657  0.00036377  0.53536513
   0.49911612  0.25096833  0.53718099
   0.07966007  0.33247954  0.60926732
   0.07988646  0.08204288  0.60893809
   0.32730598  0.33314883  0.60930611
   0.32880177  0.08333772  0.60883957
   0.08333000  0.83333000  0.39081000
   0.08333000  0.58333000  0.39081000
   0.33333000  0.83333000  0.39081000
   0.33333000  0.58333000  0.39081000
   0.41667000  0.66667000  0.46360000
   0.41667000  0.91667000  0.46360000
   0.16667000  0.66667000  0.46360000
   0.16667000  0.91667000  0.46360000
   0.24792862  0.49978522  0.53589631
   0.24899253  0.74976238  0.53548007
   0.49845824  0.49737474  0.53702388
   0.49845153  0.74956206  0.53518543
   0.07931006  0.83263049  0.60904881
   0.07842924  0.58291912  0.60933196
   0.32821477  0.83376928  0.60885935
   0.32574482  0.58541733  0.60889470
   0.58333000  0.33333000  0.39081000
   0.58333000  0.08333000  0.39081000
   0.83333000  0.33333000  0.39081000
   0.83333000  0.08333000  0.39081000
   0.91667000  0.16667000  0.46360000
   0.91667000  0.41667000  0.46360000
   0.66667000  0.16667000  0.46360000
   0.66667000  0.41667000  0.46360000
   0.74816366  0.99970978  0.53547694
   0.74686899  0.25038647  0.53645581
   0.99891570  0.99993627  0.53533605
   0.99812606  0.24979170  0.53584093
   0.57679260  0.33331635  0.61466754
   0.57853260  0.08110650  0.60875375
   0.83196294  0.33270513  0.60972033
   0.83221275  0.07791931  0.60778080
   0.58333000  0.83333000  0.39081000
   0.58333000  0.58333000  0.39081000
   0.83333000  0.83333000  0.39081000
   0.83333000  0.58333000  0.39081000
   0.91667000  0.66667000  0.46360000
   0.91667000  0.91667000  0.46360000
   0.66667000  0.66667000  0.46360000
   0.66667000  0.91667000  0.46360000
   0.74837848  0.49898601  0.53604319
   0.74820067  0.74972035  0.53565999
   0.99874118  0.49956840  0.53587152
   0.99836273  0.74963059  0.53588694
   0.57834992  0.83351903  0.60884824
   0.57643012  0.58777305  0.60817944
   0.82924472  0.83200776  0.60903749
   0.82904582  0.58376168  0.60882949
   0.59866263  0.33218064  0.70808274
   0.64006620  0.33290720  0.67319757
   0.74568660  0.33359124  0.66664454
 
 position of ions in cartesian coordinates  (Angst):
   2.80354393  3.23728606 12.28925494
   1.40174393  0.80929723 12.28925494
   5.60714393  3.23728606 12.28925494
   4.20534393  0.80929723 12.28925494
   5.60725607  1.61869159 14.57818016
   7.00905607  4.04668041 14.57818016
   2.80365607  1.61869159 14.57818016
   4.20545607  4.04668041 14.57818016
   8.39721410  9.71174982 16.83997532
   4.19285019  2.42609273 16.84067548
   5.59282822  0.00353287 16.83487785
   7.00451737  2.43739317 16.89197843
   2.75761915  3.22902644 19.15877637
   1.35590956  0.79679675 19.14842361
   5.53857232  3.23552653 19.15999613
   4.15460581  0.80937224 19.14532572
   5.60714393  8.09326370 12.28925494
   4.20534393  5.66527488 12.28925494
   8.41074393  8.09326370 12.28925494
   7.00894393  5.66527488 12.28925494
   8.41085607  6.47466923 14.57818016
   9.81265607  8.90265805 14.57818016
   5.60725607  6.47466923 14.57818016
   7.00905607  8.90265805 14.57818016
   5.58276635  4.85389170 16.85158109
   6.99636943  7.28165866 16.83849205
   8.37878977  4.83048123 16.88703799
   9.79277925  7.27971321 16.82922685
   5.55814041  8.08647013 19.15190513
   4.14808099  5.66128448 19.16080914
   8.35584283  8.09752998 19.14594760
   6.93558473  5.68554691 19.14705912
   8.41074393  3.23728606 12.28925494
   7.00894393  0.80929723 12.28925494
  11.21434393  3.23728606 12.28925494
   9.81254393  0.80929723 12.28925494
  11.21445607  1.61869159 14.57818016
  12.61625607  4.04668041 14.57818016
   8.41085607  1.61869159 14.57818016
   9.81265607  4.04668041 14.57818016
  13.99577917  9.70913665 16.83839375
   9.77965467  2.43174224 16.86917476
  16.80908285  9.71133634 16.83396342
  12.59401698  2.42596586 16.84983970
   8.33735432  3.23715345 19.32858955
   6.94267636  0.78770273 19.14262699
  11.19550936  3.23121735 19.17302176
   9.76967584  0.75674885 19.11203194
  11.21434393  8.09326370 12.28925494
   9.81254393  5.66527488 12.28925494
  14.01794393  8.09326370 12.28925494
  12.61614393  5.66527488 12.28925494
  14.01805607  6.47466923 14.57818016
  15.41985607  8.90265805 14.57818016
  11.21445607  6.47466923 14.57818016
  12.61625607  8.90265805 14.57818016
  11.19053001  4.84612985 16.85619986
  12.59445353  7.28125047 16.84414974
  14.00146303  4.85178597 16.85080161
  15.39936767  7.28037875 16.85128646
  11.15955531  8.09509956 19.14559812
   9.76007896  5.70842558 19.12456749
  13.96471594  8.08042218 19.15154930
  12.57051997  5.66946730 19.14500856
   8.57624548  3.22612350 22.26608658
   9.04463561  3.23317985 21.16910154
  10.23294066  3.23982322 20.96303742
 


--------------------------------------------------------------------------------------------------------


 k-point  1 :   0.0000 0.0000 0.0000  plane waves:   62299
 k-point  2 :   0.2500 0.0000 0.0000  plane waves:   62176
 k-point  3 :   0.5000 0.0000 0.0000  plane waves:   62174
 k-point  4 :   0.0000 0.2500 0.0000  plane waves:   62176
 k-point  5 :   0.2500 0.2500 0.0000  plane waves:   62176
 k-point  6 :   0.5000 0.2500 0.0000  plane waves:   62212
 k-point  7 :  -0.2500 0.2500 0.0000  plane waves:   62212
 k-point  8 :   0.0000 0.5000 0.0000  plane waves:   62174
 k-point  9 :   0.2500 0.5000 0.0000  plane waves:   62212
 k-point 10 :   0.5000 0.5000 0.0000  plane waves:   62174

 maximum and minimum number of plane-waves per node :      3922     3851

 maximum number of plane-waves:     62299
 maximum index in each direction: 
   IXMAX=   18   IYMAX=   18   IZMAX=   51
   IXMIN=  -18   IYMIN=  -18   IZMIN=  -51


 real space projection operators:
  total allocation   :      15514.56 KBytes
  max/ min on nodes  :       1162.58        776.67


 parallel 3D FFT for wavefunctions:
    minimum data exchange during FFTs selected (reduces bandwidth)
 parallel 3D FFT for charge:
    minimum data exchange during FFTs selected (reduces bandwidth)


 total amount of memory used by VASP MPI-rank0   103934. kBytes
=======================================================================

   base      :      30000. kBytes
   nonlr-proj:       3437. kBytes
   fftplans  :       2760. kBytes
   grid      :       5191. kBytes
   one-center:         77. kBytes
   wavefun   :      62469. kBytes
 
     INWAV:  cpu time    0.0000: real time    0.0002
 Broyden mixing: mesh for mixing (old mesh)
   NGX = 37   NGY = 37   NGZ =103
  (NGX  = 96   NGY  = 96   NGZ  =270)
  gives a total of 141007 points

 initial charge density was supplied:
 charge density of overlapping atoms calculated
 number of electron     651.0000000 magnetization 
 keeping initial charge density in first step


--------------------------------------------------------------------------------------------------------


 Maximum index for non-local projection operator          239
 Maximum index for augmentation-charges          337 (set IRDMAX)


--------------------------------------------------------------------------------------------------------


 First call to EWALD:  gamma=   0.118
 Maximum number of real-space cells 4x 4x 2
 Maximum number of reciprocal cells 2x 2x 5

    FEWALD:  cpu time    0.0025: real time    0.0029


--------------------------------------- Iteration      1(   1)  ---------------------------------------


    POTLOK:  cpu time    0.0251: real time    0.0309
    SETDIJ:  cpu time    0.0061: real time    0.0070
     EDDAV:  cpu time   11.1568: real time   11.1858
       DOS:  cpu time    0.0030: real time    0.0030
    --------------------------------------------
      LOOP:  cpu time   11.1909: real time   11.2267

 eigenvalue-minimisations  :  7928
 total energy-change (2. order) : 0.4259914E+04  (-0.2377738E+05)
 number of electron     651.0000000 magnetization 
 augmentation part      651.0000000 magnetization 

 Free energy of the ion-electron system (eV)
  ---------------------------------------------------
  alpha Z        PSCENC =      1165.16924622
  Ewald energy   TEWEN  =    410169.55542222
  -Hartree energ DENC   =   -458786.89597981
  -exchange      EXHF   =         0.00000000
  -V(xc)+E(xc)   XCENC  =       258.67033450
  PAW double counting   =     45009.11181811   -43201.36138378
  entropy T*S    EENTRO =         0.01000540
  eigenvalues    EBANDS =      2390.62059342
  atomic energy  EATOM  =     47255.03396832
  Solvation  Ediel_sol  =         0.00000000
  ---------------------------------------------------
  free energy    TOTEN  =      4259.91402460 eV

  energy without entropy =     4259.90401920  energy(sigma->0) =     4259.91068947


--------------------------------------------------------------------------------------------------------




--------------------------------------- Iteration      1(   2)  ---------------------------------------


     EDDAV:  cpu time   13.1870: real time   13.2211
       DOS:  cpu time    0.0028: real time    0.0028
    --------------------------------------------
      LOOP:  cpu time   13.1898: real time   13.2239

 eigenvalue-minimisations  :  9816
 total energy-change (2. order) :-0.4285891E+04  (-0.3944294E+04)
 number of electron     651.0000000 magnetization 
 augmentation part      651.0000000 magnetization 

 Free energy of the ion-electron system (eV)
  ---------------------------------------------------
  alpha Z        PSCENC =      1165.16924622
  Ewald energy   TEWEN  =    410169.55542222
  -Hartree energ DENC   =   -458786.89597981
  -exchange      EXHF   =         0.00000000
  -V(xc)+E(xc)   XCENC  =       258.67033450
  PAW double counting   =     45009.11181811   -43201.36138378
  entropy T*S    EENTRO =         0.00437715
  eigenvalues    EBANDS =     -1895.26520778
  atomic energy  EATOM  =     47255.03396832
  Solvation  Ediel_sol  =         0.00000000
  ---------------------------------------------------
  free energy    TOTEN  =       -25.97740486 eV

  energy without entropy =      -25.98178201  energy(sigma->0) =      -25.97886391


--------------------------------------------------------------------------------------------------------




--------------------------------------- Iteration      1(   3)  ---------------------------------------


     EDDAV:  cpu time   12.2948: real time   12.3270
       DOS:  cpu time    0.0029: real time    0.0029
    --------------------------------------------
      LOOP:  cpu time   12.2977: real time   12.3300

 eigenvalue-minimisations  :  8992
 total energy-change (2. order) :-0.3718179E+03  (-0.3401057E+03)
 number of electron     651.0000000 magnetization 
 augmentation part      651.0000000 magnetization 

 Free energy of the ion-electron system (eV)
  ---------------------------------------------------
  alpha Z        PSCENC =      1165.16924622
  Ewald energy   TEWEN  =    410169.55542222
  -Hartree energ DENC   =   -458786.89597981
  -exchange      EXHF   =         0.00000000
  -V(xc)+E(xc)   XCENC  =       258.67033450
  PAW double counting   =     45009.11181811   -43201.36138378
  entropy T*S    EENTRO =        -0.05217345
  eigenvalues    EBANDS =     -2267.02652872
  atomic energy  EATOM  =     47255.03396832
  Solvation  Ediel_sol  =         0.00000000
  ---------------------------------------------------
  free energy    TOTEN  =      -397.79527639 eV

  energy without entropy =     -397.74310294  energy(sigma->0) =     -397.77788524


--------------------------------------------------------------------------------------------------------




--------------------------------------- Iteration      1(   4)  ---------------------------------------


     EDDAV:  cpu time   14.1914: real time   14.2302
       DOS:  cpu time    0.0031: real time    0.0030
    --------------------------------------------
      LOOP:  cpu time   14.1945: real time   14.2332

 eigenvalue-minimisations  : 10760
 total energy-change (2. order) :-0.1852086E+02  (-0.1709942E+02)
 number of electron     651.0000000 magnetization 
 augmentation part      651.0000000 magnetization 

 Free energy of the ion-electron system (eV)
  ---------------------------------------------------
  alpha Z        PSCENC =      1165.16924622
  Ewald energy   TEWEN  =    410169.55542222
  -Hartree energ DENC   =   -458786.89597981
  -exchange      EXHF   =         0.00000000
  -V(xc)+E(xc)   XCENC  =       258.67033450
  PAW double counting   =     45009.11181811   -43201.36138378
  entropy T*S    EENTRO =        -0.08157651
  eigenvalues    EBANDS =     -2285.51798629
  atomic energy  EATOM  =     47255.03396832
  Solvation  Ediel_sol  =         0.00000000
  ---------------------------------------------------
  free energy    TOTEN  =      -416.31613703 eV

  energy without entropy =     -416.23456052  energy(sigma->0) =     -416.28894486


--------------------------------------------------------------------------------------------------------




--------------------------------------- Iteration      1(   5)  ---------------------------------------


     EDDAV:  cpu time   13.1451: real time   13.1845
       DOS:  cpu time    0.0039: real time    0.0039
    CHARGE:  cpu time    0.2935: real time    0.2944
    MIXING:  cpu time    0.0020: real time    0.0022
    --------------------------------------------
      LOOP:  cpu time   13.4444: real time   13.4849

 eigenvalue-minimisations  :  9768
 total energy-change (2. order) :-0.5242845E+00  (-0.5164186E+00)
 number of electron     650.9999129 magnetization 
 augmentation part      186.7392162 magnetization 

 Broyden mixing:
  rms(total) = 0.82301E+01    rms(broyden)= 0.82299E+01
  rms(prec ) = 0.83020E+01
  weight for this iteration     100.00

 Free energy of the ion-electron system (eV)
  ---------------------------------------------------
  alpha Z        PSCENC =      1165.16924622
  Ewald energy   TEWEN  =    410169.55542222
  -Hartree energ DENC   =   -458786.89597981
  -exchange      EXHF   =         0.00000000
  -V(xc)+E(xc)   XCENC  =       258.67033450
  PAW double counting   =     45009.11181811   -43201.36138378
  entropy T*S    EENTRO =        -0.08200372
  eigenvalues    EBANDS =     -2286.04184363
  atomic energy  EATOM  =     47255.03396832
  Solvation  Ediel_sol  =         0.00000000
  ---------------------------------------------------
  free energy    TOTEN  =      -416.84042157 eV

  energy without entropy =     -416.75841785  energy(sigma->0) =     -416.81308700


--------------------------------------------------------------------------------------------------------




--------------------------------------- Iteration      1(   6)  ---------------------------------------


    POTLOK:  cpu time    0.0218: real time    0.0244
    SETDIJ:  cpu time    0.0042: real time    0.0070
    EDDIAG:  cpu time    1.5932: real time    1.5977
  RMM-DIIS:  cpu time    5.1021: real time    5.1159
    ORTHCH:  cpu time    0.5015: real time    0.5029
       DOS:  cpu time    0.0033: real time    0.0033
    CHARGE:  cpu time    0.2882: real time    0.2889
    MIXING:  cpu time    0.0016: real time    0.0017
    --------------------------------------------
      LOOP:  cpu time    7.5159: real time    7.5417

 eigenvalue-minimisations  :  8237
 total energy-change (2. order) : 0.1250377E+02  (-0.7955152E+01)
 number of electron     650.9999123 magnetization 
 augmentation part      197.9262285 magnetization 

 Broyden mixing:
  rms(total) = 0.62534E+01    rms(broyden)= 0.62530E+01
  rms(prec ) = 0.65086E+01
  weight for this iteration     100.00

 eigenvalues of (default mixing * dielectric matrix)
  average eigenvalue GAMMA=   1.1127
  1.1127

 Free energy of the ion-electron system (eV)
  ---------------------------------------------------
  alpha Z        PSCENC =      1165.16924622
  Ewald energy   TEWEN  =    410169.55542222
  -Hartree energ DENC   =   -457911.95536437
  -exchange      EXHF   =         0.00000000
  -V(xc)+E(xc)   XCENC  =       243.24953073
  PAW double counting   =     49598.92193780   -47885.05398766
  entropy T*S    EENTRO =         0.00312435
  eigenvalues    EBANDS =     -3039.26052636
  atomic energy  EATOM  =     47255.03396832
  Solvation  Ediel_sol  =         0.00000000
  ---------------------------------------------------
  free energy    TOTEN  =      -404.33664875 eV

  energy without entropy =     -404.33977310  energy(sigma->0) =     -404.33769020


--------------------------------------------------------------------------------------------------------




--------------------------------------- Iteration      1(   7)  ---------------------------------------


    POTLOK:  cpu time    0.0214: real time    0.0236
    SETDIJ:  cpu time    0.0042: real time    0.0052
    EDDIAG:  cpu time    1.6067: real time    1.6113
  RMM-DIIS:  cpu time    5.1728: real time    5.1855
    ORTHCH:  cpu time    0.4972: real time    0.4983
       DOS:  cpu time    0.0033: real time    0.0033
    CHARGE:  cpu time    0.2925: real time    0.2932
    MIXING:  cpu time    0.0012: real time    0.0012
    --------------------------------------------
      LOOP:  cpu time    7.5991: real time    7.6218

 eigenvalue-minimisations  :  8446
 total energy-change (2. order) :-0.8924027E+02  (-0.1700052E+02)
 number of electron     650.9999111 magnetization 
 augmentation part      193.9092004 magnetization 

 Broyden mixing:
  rms(total) = 0.80196E+01    rms(broyden)= 0.80193E+01
  rms(prec ) = 0.91389E+01
  weight for this iteration     100.00

 eigenvalues of (default mixing * dielectric matrix)
  average eigenvalue GAMMA=   1.1228
  1.9788  0.2668

 Free energy of the ion-electron system (eV)
  ---------------------------------------------------
  alpha Z        PSCENC =      1165.16924622
  Ewald energy   TEWEN  =    410169.55542222
  -Hartree energ DENC   =   -458642.89641238
  -exchange      EXHF   =         0.00000000
  -V(xc)+E(xc)   XCENC  =       238.11068093
  PAW double counting   =     52670.22094187   -50989.09177299
  entropy T*S    EENTRO =         0.01357138
  eigenvalues    EBANDS =     -2359.69256076
  atomic energy  EATOM  =     47255.03396832
  Solvation  Ediel_sol  =         0.00000000
  ---------------------------------------------------
  free energy    TOTEN  =      -493.57691518 eV

  energy without entropy =     -493.59048657  energy(sigma->0) =     -493.58143898


--------------------------------------------------------------------------------------------------------




--------------------------------------- Iteration      1(   8)  ---------------------------------------


    POTLOK:  cpu time    0.0200: real time    0.0202
    SETDIJ:  cpu time    0.0037: real time    0.0037
    EDDIAG:  cpu time    1.6060: real time    1.6099
  RMM-DIIS:  cpu time    5.0574: real time    5.0699
    ORTHCH:  cpu time    0.5029: real time    0.5042
       DOS:  cpu time    0.0034: real time    0.0034
    CHARGE:  cpu time    0.2925: real time    0.2932
    MIXING:  cpu time    0.0011: real time    0.0011
    --------------------------------------------
      LOOP:  cpu time    7.4870: real time    7.5056

 eigenvalue-minimisations  :  8207
 total energy-change (2. order) : 0.5296562E+02  (-0.7385214E+01)
 number of electron     650.9999019 magnetization 
 augmentation part      199.3799579 magnetization 

 Broyden mixing:
  rms(total) = 0.58143E+01    rms(broyden)= 0.58142E+01
  rms(prec ) = 0.69507E+01
  weight for this iteration     100.00

 eigenvalues of (default mixing * dielectric matrix)
  average eigenvalue GAMMA=   0.9086
  2.1532  0.2863  0.2863

 Free energy of the ion-electron system (eV)
  ---------------------------------------------------
  alpha Z        PSCENC =      1165.16924622
  Ewald energy   TEWEN  =    410169.55542222
  -Hartree energ DENC   =   -458157.61100882
  -exchange      EXHF   =         0.00000000
  -V(xc)+E(xc)   XCENC  =       234.35245389
  PAW double counting   =     56064.23036044   -54427.50788123
  entropy T*S    EENTRO =         0.01106138
  eigenvalues    EBANDS =     -2743.84491861
  atomic energy  EATOM  =     47255.03396832
  Solvation  Ediel_sol  =         0.00000000
  ---------------------------------------------------
  free energy    TOTEN  =      -440.61129619 eV

  energy without entropy =     -440.62235756  energy(sigma->0) =     -440.61498331


--------------------------------------------------------------------------------------------------------




--------------------------------------- Iteration      1(   9)  ---------------------------------------


    POTLOK:  cpu time    0.0203: real time    0.0223
    SETDIJ:  cpu time    0.0036: real time    0.0036
    EDDIAG:  cpu time    1.6096: real time    1.6136
  RMM-DIIS:  cpu time    5.1162: real time    5.1287
    ORTHCH:  cpu time    0.5003: real time    0.5015
       DOS:  cpu time    0.0033: real time    0.0033
    CHARGE:  cpu time    0.2931: real time    0.2939
    MIXING:  cpu time    0.0012: real time    0.0012
    --------------------------------------------
      LOOP:  cpu time    7.5476: real time    7.5680

 eigenvalue-minimisations  :  8268
 total energy-change (2. order) : 0.1357567E+02  (-0.5157609E+01)
 number of electron     650.9999161 magnetization 
 augmentation part      199.7280013 magnetization 

 Broyden mixing:
  rms(total) = 0.49597E+01    rms(broyden)= 0.49594E+01
  rms(prec ) = 0.68697E+01
  weight for this iteration     100.00

 eigenvalues of (default mixing * dielectric matrix)
  average eigenvalue GAMMA=   0.8353
  2.2553  0.6463  0.2900  0.1498

 Free energy of the ion-electron system (eV)
  ---------------------------------------------------
  alpha Z        PSCENC =      1165.16924622
  Ewald energy   TEWEN  =    410169.55542222
  -Hartree energ DENC   =   -457977.82060285
  -exchange      EXHF   =         0.00000000
  -V(xc)+E(xc)   XCENC  =       234.38088741
  PAW double counting   =     56843.35294843   -55214.58147978
  entropy T*S    EENTRO =        -0.02409583
  eigenvalues    EBANDS =     -2902.10191780
  atomic energy  EATOM  =     47255.03396832
  Solvation  Ediel_sol  =         0.00000000
  ---------------------------------------------------
  free energy    TOTEN  =      -427.03562366 eV

  energy without entropy =     -427.01152783  energy(sigma->0) =     -427.02759171


--------------------------------------------------------------------------------------------------------




--------------------------------------- Iteration      1(  10)  ---------------------------------------


    POTLOK:  cpu time    0.0202: real time    0.0204
    SETDIJ:  cpu time    0.0038: real time    0.0038
    EDDIAG:  cpu time    1.6007: real time    1.6047
  RMM-DIIS:  cpu time    5.1631: real time    5.1758
    ORTHCH:  cpu time    0.5053: real time    0.5065
       DOS:  cpu time    0.0031: real time    0.0031
    CHARGE:  cpu time    0.2912: real time    0.2919
    MIXING:  cpu time    0.0016: real time    0.0016
    --------------------------------------------
      LOOP:  cpu time    7.5891: real time    7.6078

 eigenvalue-minimisations  :  8321
 total energy-change (2. order) : 0.1245673E+02  (-0.3846548E+01)
 number of electron     650.9999054 magnetization 
 augmentation part      199.9819563 magnetization 

 Broyden mixing:
  rms(total) = 0.42791E+01    rms(broyden)= 0.42788E+01
  rms(prec ) = 0.52721E+01
  weight for this iteration     100.00

 eigenvalues of (default mixing * dielectric matrix)
  average eigenvalue GAMMA=   0.7787
  2.3346  0.9173  0.2650  0.2650  0.1117

 Free energy of the ion-electron system (eV)
  ---------------------------------------------------
  alpha Z        PSCENC =      1165.16924622
  Ewald energy   TEWEN  =    410169.55542222
  -Hartree energ DENC   =   -458071.55680011
  -exchange      EXHF   =         0.00000000
  -V(xc)+E(xc)   XCENC  =       234.85766746
  PAW double counting   =     57277.47853471   -55651.45875829
  entropy T*S    EENTRO =        -0.01575509
  eigenvalues    EBANDS =     -2793.64241588
  atomic energy  EATOM  =     47255.03396832
  Solvation  Ediel_sol  =         0.00000000
  ---------------------------------------------------
  free energy    TOTEN  =      -414.57889042 eV

  energy without entropy =     -414.56313534  energy(sigma->0) =     -414.57363873


--------------------------------------------------------------------------------------------------------




--------------------------------------- Iteration      1(  11)  ---------------------------------------


    POTLOK:  cpu time    0.0199: real time    0.0220
    SETDIJ:  cpu time    0.0036: real time    0.0036
    EDDIAG:  cpu time    1.6069: real time    1.6127
  RMM-DIIS:  cpu time    5.0117: real time    5.0240
    ORTHCH:  cpu time    0.4987: real time    0.4999
       DOS:  cpu time    0.0034: real time    0.0034
    CHARGE:  cpu time    0.2886: real time    0.2893
    MIXING:  cpu time    0.0012: real time    0.0012
    --------------------------------------------
      LOOP:  cpu time    7.4340: real time    7.4561

 eigenvalue-minimisations  :  8056
 total energy-change (2. order) : 0.1833232E+02  (-0.8010288E+00)
 number of electron     650.9999061 magnetization 
 augmentation part      199.9637037 magnetization 

 Broyden mixing:
  rms(total) = 0.25033E+01    rms(broyden)= 0.25032E+01
  rms(prec ) = 0.27629E+01
  weight for this iteration     100.00

 eigenvalues of (default mixing * dielectric matrix)
  average eigenvalue GAMMA=   0.6943
  2.2256  0.9528  0.3561  0.2566  0.2566  0.1182

 Free energy of the ion-electron system (eV)
  ---------------------------------------------------
  alpha Z        PSCENC =      1165.16924622
  Ewald energy   TEWEN  =    410169.55542222
  -Hartree energ DENC   =   -458091.12684121
  -exchange      EXHF   =         0.00000000
  -V(xc)+E(xc)   XCENC  =       235.41569969
  PAW double counting   =     57618.13304808   -55994.17019214
  entropy T*S    EENTRO =        -0.02581610
  eigenvalues    EBANDS =     -2754.23110264
  atomic energy  EATOM  =     47255.03396832
  Solvation  Ediel_sol  =         0.00000000
  ---------------------------------------------------
  free energy    TOTEN  =      -396.24656756 eV

  energy without entropy =     -396.22075146  energy(sigma->0) =     -396.23796219


--------------------------------------------------------------------------------------------------------




--------------------------------------- Iteration      1(  12)  ---------------------------------------


    POTLOK:  cpu time    0.0198: real time    0.0200
    SETDIJ:  cpu time    0.0035: real time    0.0035
    EDDIAG:  cpu time    1.6096: real time    1.6135
  RMM-DIIS:  cpu time    5.0424: real time    5.0585
    ORTHCH:  cpu time    0.5020: real time    0.5033
       DOS:  cpu time    0.0035: real time    0.0035
    CHARGE:  cpu time    0.2874: real time    0.2881
    MIXING:  cpu time    0.0018: real time    0.0018
    --------------------------------------------
      LOOP:  cpu time    7.4699: real time    7.4921

 eigenvalue-minimisations  :  8106
 total energy-change (2. order) : 0.3136614E+01  (-0.4517976E+00)
 number of electron     650.9999069 magnetization 
 augmentation part      199.8345013 magnetization 

 Broyden mixing:
  rms(total) = 0.19140E+01    rms(broyden)= 0.19139E+01
  rms(prec ) = 0.22061E+01
  weight for this iteration     100.00

 eigenvalues of (default mixing * dielectric matrix)
  average eigenvalue GAMMA=   0.6432
  2.0572  0.8070  0.7145  0.3044  0.3044  0.1152  0.1996

 Free energy of the ion-electron system (eV)
  ---------------------------------------------------
  alpha Z        PSCENC =      1165.16924622
  Ewald energy   TEWEN  =    410169.55542222
  -Hartree energ DENC   =   -458072.79411395
  -exchange      EXHF   =         0.00000000
  -V(xc)+E(xc)   XCENC  =       235.90686580
  PAW double counting   =     57452.55752704   -55825.56642716
  entropy T*S    EENTRO =        -0.04984134
  eigenvalues    EBANDS =     -2772.92260021
  atomic energy  EATOM  =     47255.03396832
  Solvation  Ediel_sol  =         0.00000000
  ---------------------------------------------------
  free energy    TOTEN  =      -393.10995306 eV

  energy without entropy =     -393.06011172  energy(sigma->0) =     -393.09333928


--------------------------------------------------------------------------------------------------------




--------------------------------------- Iteration      1(  13)  ---------------------------------------


    POTLOK:  cpu time    0.0231: real time    0.0263
    SETDIJ:  cpu time    0.0051: real time    0.0051
    EDDIAG:  cpu time    1.6196: real time    1.6236
  RMM-DIIS:  cpu time    5.1229: real time    5.1354
    ORTHCH:  cpu time    0.5014: real time    0.5026
       DOS:  cpu time    0.0034: real time    0.0034
    CHARGE:  cpu time    0.2885: real time    0.2893
    MIXING:  cpu time    0.0015: real time    0.0015
    --------------------------------------------
      LOOP:  cpu time    7.5655: real time    7.5871

 eigenvalue-minimisations  :  8249
 total energy-change (2. order) : 0.1716615E+01  (-0.2735331E+00)
 number of electron     650.9999067 magnetization 
 augmentation part      199.8059751 magnetization 

 Broyden mixing:
  rms(total) = 0.13838E+01    rms(broyden)= 0.13838E+01
  rms(prec ) = 0.16589E+01
  weight for this iteration     100.00

 eigenvalues of (default mixing * dielectric matrix)
  average eigenvalue GAMMA=   0.6138
  2.0446  0.6989  0.6989  0.6598  0.2529  0.2529  0.1163  0.1862

 Free energy of the ion-electron system (eV)
  ---------------------------------------------------
  alpha Z        PSCENC =      1165.16924622
  Ewald energy   TEWEN  =    410169.55542222
  -Hartree energ DENC   =   -458048.16445803
  -exchange      EXHF   =         0.00000000
  -V(xc)+E(xc)   XCENC  =       236.37369292
  PAW double counting   =     57235.63874184   -55605.10297848
  entropy T*S    EENTRO =        -0.05036028
  eigenvalues    EBANDS =     -2799.84661284
  atomic energy  EATOM  =     47255.03396832
  Solvation  Ediel_sol  =         0.00000000
  ---------------------------------------------------
  free energy    TOTEN  =      -391.39333810 eV

  energy without entropy =     -391.34297782  energy(sigma->0) =     -391.37655134


--------------------------------------------------------------------------------------------------------




--------------------------------------- Iteration      1(  14)  ---------------------------------------


    POTLOK:  cpu time    0.0216: real time    0.0250
    SETDIJ:  cpu time    0.0046: real time    0.0067
    EDDIAG:  cpu time    1.6047: real time    1.6089
  RMM-DIIS:  cpu time    5.1097: real time    5.1222
    ORTHCH:  cpu time    0.5009: real time    0.5022
       DOS:  cpu time    0.0034: real time    0.0034
    CHARGE:  cpu time    0.2875: real time    0.2882
    MIXING:  cpu time    0.0015: real time    0.0015
    --------------------------------------------
      LOOP:  cpu time    7.5340: real time    7.5581

 eigenvalue-minimisations  :  8242
 total energy-change (2. order) : 0.1425676E+01  (-0.1162901E+00)
 number of electron     650.9999083 magnetization 
 augmentation part      199.8428345 magnetization 

 Broyden mixing:
  rms(total) = 0.78431E+00    rms(broyden)= 0.78427E+00
  rms(prec ) = 0.86462E+00
  weight for this iteration     100.00

 eigenvalues of (default mixing * dielectric matrix)
  average eigenvalue GAMMA=   0.6178
  2.0927  0.7749  0.7749  0.8236  0.2733  0.2733  0.1161  0.2458  0.1853

 Free energy of the ion-electron system (eV)
  ---------------------------------------------------
  alpha Z        PSCENC =      1165.16924622
  Ewald energy   TEWEN  =    410169.55542222
  -Hartree energ DENC   =   -458046.37888036
  -exchange      EXHF   =         0.00000000
  -V(xc)+E(xc)   XCENC  =       236.50481130
  PAW double counting   =     57214.27383995   -55583.21369410
  entropy T*S    EENTRO =        -0.04619857
  eigenvalues    EBANDS =     -2800.86617670
  atomic energy  EATOM  =     47255.03396832
  Solvation  Ediel_sol  =         0.00000000
  ---------------------------------------------------
  free energy    TOTEN  =      -389.96766170 eV

  energy without entropy =     -389.92146313  energy(sigma->0) =     -389.95226218


--------------------------------------------------------------------------------------------------------




--------------------------------------- Iteration      1(  15)  ---------------------------------------


    POTLOK:  cpu time    0.0195: real time    0.0197
    SETDIJ:  cpu time    0.0036: real time    0.0036
    EDDIAG:  cpu time    1.6100: real time    1.6139
  RMM-DIIS:  cpu time    5.2589: real time    5.2718
    ORTHCH:  cpu time    0.4987: real time    0.4999
       DOS:  cpu time    0.0035: real time    0.0036
    CHARGE:  cpu time    0.2900: real time    0.2907
    MIXING:  cpu time    0.0018: real time    0.0018
    --------------------------------------------
      LOOP:  cpu time    7.6859: real time    7.7049

 eigenvalue-minimisations  :  8454
 total energy-change (2. order) : 0.2009726E+00  (-0.4054775E-01)
 number of electron     650.9999091 magnetization 
 augmentation part      199.8122013 magnetization 

 Broyden mixing:
  rms(total) = 0.56963E+00    rms(broyden)= 0.56961E+00
  rms(prec ) = 0.60075E+00
  weight for this iteration     100.00

 eigenvalues of (default mixing * dielectric matrix)
  average eigenvalue GAMMA=   0.6307
  2.1081  0.9888  0.9888  0.8777  0.3238  0.2561  0.2561  0.1161  0.2139  0.1776

 Free energy of the ion-electron system (eV)
  ---------------------------------------------------
  alpha Z        PSCENC =      1165.16924622
  Ewald energy   TEWEN  =    410169.55542222
  -Hartree energ DENC   =   -458058.96451776
  -exchange      EXHF   =         0.00000000
  -V(xc)+E(xc)   XCENC  =       236.52603517
  PAW double counting   =     57243.62918964   -55612.77164315
  entropy T*S    EENTRO =        -0.04297926
  eigenvalues    EBANDS =     -2787.90141054
  atomic energy  EATOM  =     47255.03396832
  Solvation  Ediel_sol  =         0.00000000
  ---------------------------------------------------
  free energy    TOTEN  =      -389.76668915 eV

  energy without entropy =     -389.72370988  energy(sigma->0) =     -389.75236272


--------------------------------------------------------------------------------------------------------




--------------------------------------- Iteration      1(  16)  ---------------------------------------


    POTLOK:  cpu time    0.0194: real time    0.0196
    SETDIJ:  cpu time    0.0036: real time    0.0036
    EDDIAG:  cpu time    1.6055: real time    1.6094
  RMM-DIIS:  cpu time    5.2167: real time    5.2294
    ORTHCH:  cpu time    0.4996: real time    0.5008
       DOS:  cpu time    0.0035: real time    0.0035
    CHARGE:  cpu time    0.2904: real time    0.2911
    MIXING:  cpu time    0.0021: real time    0.0021
    --------------------------------------------
      LOOP:  cpu time    7.6408: real time    7.6596

 eigenvalue-minimisations  :  8384
 total energy-change (2. order) :-0.2987871E-02  (-0.2208077E-01)
 number of electron     650.9999093 magnetization 
 augmentation part      199.7438754 magnetization 

 Broyden mixing:
  rms(total) = 0.47651E+00    rms(broyden)= 0.47649E+00
  rms(prec ) = 0.52798E+00
  weight for this iteration     100.00

 eigenvalues of (default mixing * dielectric matrix)
  average eigenvalue GAMMA=   0.6404
  2.0143  1.1969  1.1969  0.9107  0.4230  0.3009  0.2687  0.2687  0.1161  0.1848
  0.1635

 Free energy of the ion-electron system (eV)
  ---------------------------------------------------
  alpha Z        PSCENC =      1165.16924622
  Ewald energy   TEWEN  =    410169.55542222
  -Hartree energ DENC   =   -458074.02054286
  -exchange      EXHF   =         0.00000000
  -V(xc)+E(xc)   XCENC  =       236.61831420
  PAW double counting   =     57240.62427982   -55609.36590871
  entropy T*S    EENTRO =        -0.06139876
  eigenvalues    EBANDS =     -2773.32305747
  atomic energy  EATOM  =     47255.03396832
  Solvation  Ediel_sol  =         0.00000000
  ---------------------------------------------------
  free energy    TOTEN  =      -389.76967702 eV

  energy without entropy =     -389.70827825  energy(sigma->0) =     -389.74921076


--------------------------------------------------------------------------------------------------------




--------------------------------------- Iteration      1(  17)  ---------------------------------------


    POTLOK:  cpu time    0.0195: real time    0.0214
    SETDIJ:  cpu time    0.0036: real time    0.0036
    EDDIAG:  cpu time    1.6121: real time    1.6160
  RMM-DIIS:  cpu time    5.1246: real time    5.1386
    ORTHCH:  cpu time    0.5008: real time    0.5021
       DOS:  cpu time    0.0036: real time    0.0037
    CHARGE:  cpu time    0.2908: real time    0.2915
    MIXING:  cpu time    0.0022: real time    0.0022
    --------------------------------------------
      LOOP:  cpu time    7.5573: real time    7.5791

 eigenvalue-minimisations  :  8248
 total energy-change (2. order) : 0.3360159E-01  (-0.1374355E-01)
 number of electron     650.9999089 magnetization 
 augmentation part      199.6477560 magnetization 

 Broyden mixing:
  rms(total) = 0.41486E+00    rms(broyden)= 0.41485E+00
  rms(prec ) = 0.45556E+00
  weight for this iteration     100.00

 eigenvalues of (default mixing * dielectric matrix)
  average eigenvalue GAMMA=   0.6438
  1.7480  1.4430  1.4430  0.7238  0.7238  0.4179  0.2695  0.2695  0.1161  0.2308
  0.1860  0.1542

 Free energy of the ion-electron system (eV)
  ---------------------------------------------------
  alpha Z        PSCENC =      1165.16924622
  Ewald energy   TEWEN  =    410169.55542222
  -Hartree energ DENC   =   -458087.48307142
  -exchange      EXHF   =         0.00000000
  -V(xc)+E(xc)   XCENC  =       236.80063175
  PAW double counting   =     57182.17815658   -55549.60932061
  entropy T*S    EENTRO =        -0.06482624
  eigenvalues    EBANDS =     -2761.31628225
  atomic energy  EATOM  =     47255.03396832
  Solvation  Ediel_sol  =         0.00000000
  ---------------------------------------------------
  free energy    TOTEN  =      -389.73607542 eV

  energy without entropy =     -389.67124919  energy(sigma->0) =     -389.71446668


--------------------------------------------------------------------------------------------------------




--------------------------------------- Iteration      1(  18)  ---------------------------------------


    POTLOK:  cpu time    0.0194: real time    0.0196
    SETDIJ:  cpu time    0.0036: real time    0.0036
    EDDIAG:  cpu time    1.6150: real time    1.6189
  RMM-DIIS:  cpu time    5.0135: real time    5.0257
    ORTHCH:  cpu time    0.5004: real time    0.5016
       DOS:  cpu time    0.0034: real time    0.0034
    CHARGE:  cpu time    0.2891: real time    0.2898
    MIXING:  cpu time    0.0017: real time    0.0017
    --------------------------------------------
      LOOP:  cpu time    7.4461: real time    7.4644

[...]
 -0.000   0.000   0.004  -0.000   0.000  -0.000  -0.000  -0.018   0.000   0.000  -0.017   0.005   0.000  -0.008   0.000  -0.000
  0.003  -0.000  -0.000   0.012  -0.000  -0.003   0.000   0.000  -0.016  -0.000  -0.000   0.000   0.000  -0.000  -0.013  -0.000


------------------------ aborting loop because EDIFF is reached ----------------------------------------


    CHARGE:  cpu time    0.2889: real time    0.2896
    FORLOC:  cpu time    0.0078: real time    0.0078
    FORNL :  cpu time    1.6220: real time    1.6269
    STRESS:  cpu time    0.5676: real time    0.5693
    FORCOR:  cpu time    0.0272: real time    0.0305
    FORHAR:  cpu time    0.0118: real time    0.0120
    MIXING:  cpu time    0.0044: real time    0.0044
    OFIELD:  cpu time    0.0001: real time    0.0001
 only isotrope contributions calculated
  for stress because ISIF=1 (only pressure is correct)

  FORCE on cell =-STRESS in cart. coord.  units (eV):
  Direction    XX          YY          ZZ          XY          YZ          ZX
  --------------------------------------------------------------------------------------
  Alpha Z  1165.16925  1165.16925  1165.16925
  Ewald  445359.43015445189.53329************    26.02928    -1.09633   -63.64918
  Hartree454856.53608454778.75526************     7.22110    -1.41389   -29.98093
  E(xc)   -2877.05249 -2877.76556 -2895.33601     0.20131     0.00817    -0.21084
  Local  ************************920296.69985   -27.51355     3.03031    90.62663
  n-local   241.29248   241.29248   241.29248     0.00000     0.00000     0.00000
  augment  3377.13508  3377.13508  3377.13508     0.00000     0.00000     0.00000
  Kinetic  9417.20110  9422.98335  9665.37478    -5.35128    -0.46517     2.71776
  Fock        0.00000     0.00000     0.00000     0.00000     0.00000     0.00000
  -------------------------------------------------------------------------------------
  Total     -43.74566   -46.36581   -37.08932     0.58686     0.06309    -0.49656
  in kB     -20.46458   -21.69032   -17.35069     0.27454     0.02951    -0.23230
  external pressure =      -19.84 kB  Pullay stress =        0.00 kB


 VOLUME and BASIS-vectors are now :
 -----------------------------------------------------------------------------
  energy-cutoff  :      400.00
  volume of cell :     3424.86
      direct lattice vectors                 reciprocal lattice vectors
    11.214400000  0.000000000  0.000000000     0.089171066 -0.051482939  0.000000000
     5.607200000  9.711955288  0.000000000     0.000000000  0.102965878  0.000000000
     0.000000000  0.000000000 31.445600000     0.000000000  0.000000000  0.031800951

  length of vectors
    11.214400000 11.214400000 31.445600000     0.102965878  0.102965878  0.031800951


 FORCES acting on ions
    electron-ion (+dipol)            ewald-force                    non-local-force                 convergence-correction
 -----------------------------------------------------------------------------------------------
   -.163E-01 -.332E+00 0.285E+04   0.452E-01 0.310E+00 -.285E+04   -.850E-02 0.912E-02 -.115E+01   0.154E-03 -.759E-03 -.583E-03
   0.156E+00 -.402E+00 0.286E+04   -.107E+00 0.384E+00 -.285E+04   0.310E-02 -.599E-02 -.117E+01   0.129E-03 -.937E-03 -.507E-03
   -.374E+00 -.249E+00 0.285E+04   0.391E+00 0.214E+00 -.285E+04   -.102E-01 0.194E-01 -.118E+01   0.516E-03 -.309E-03 -.677E-03
   -.264E+00 -.554E+00 0.286E+04   0.191E+00 0.479E+00 -.285E+04   0.943E-02 0.401E-01 -.126E+01   -.115E-03 -.562E-03 -.397E-03
   -.327E+01 -.369E+01 0.991E+03   0.324E+01 0.367E+01 -.991E+03   0.453E-01 0.450E-01 -.317E+00   -.133E-03 -.235E-04 -.142E-02
   -.793E+00 0.119E+01 0.990E+03   0.880E+00 -.122E+01 -.990E+03   -.469E-01 -.223E-01 -.264E+00   0.989E-04 -.349E-04 -.138E-02
   0.616E+00 -.181E+01 0.993E+03   -.598E+00 0.185E+01 -.993E+03   -.593E-01 -.956E-02 -.405E+00   0.220E-03 -.650E-03 -.124E-02
   -.365E-01 -.564E+00 0.993E+03   0.806E-01 0.564E+00 -.992E+03   -.454E-01 0.310E-01 -.408E+00   0.516E-03 -.622E-03 -.113E-02
   -.810E+00 -.805E+00 -.886E+03   0.851E+00 0.830E+00 0.886E+03   -.211E-01 -.155E-01 0.475E+00   0.311E-04 0.413E-03 -.345E-02
   0.395E+01 0.220E-01 -.881E+03   -.385E+01 -.543E-01 0.880E+03   -.809E-01 0.552E-01 0.529E+00   0.947E-04 -.208E-03 -.279E-02
   0.420E+01 0.236E+01 -.878E+03   -.415E+01 -.222E+01 0.877E+03   -.395E-01 -.138E+00 0.527E+00   -.399E-03 0.660E-03 -.329E-02
   0.596E+01 0.205E+01 -.902E+03   -.540E+01 -.171E+01 0.902E+03   -.526E+00 -.337E+00 -.854E-01   0.384E-04 0.383E-03 -.280E-02
   -.102E+02 -.152E+00 -.277E+04   0.102E+02 0.101E+00 0.277E+04   0.114E-01 0.656E-01 0.103E+01   0.503E-03 -.434E-03 -.221E-02
   -.212E+02 0.138E+02 -.276E+04   0.212E+02 -.139E+02 0.276E+04   0.366E-01 0.102E+00 0.108E+01   0.178E-03 0.147E-03 -.245E-02
   0.420E+02 0.186E+00 -.274E+04   -.423E+02 -.209E+00 0.274E+04   0.310E+00 0.232E-01 0.112E+01   0.247E-03 0.114E-03 -.245E-02
   0.102E+02 0.881E+01 -.276E+04   -.102E+02 -.875E+01 0.276E+04   0.517E-01 -.617E-01 0.107E+01   -.277E-03 0.783E-03 -.257E-02
   0.156E+00 0.372E+00 0.286E+04   -.133E+00 -.359E+00 -.285E+04   -.238E-02 -.320E-02 -.115E+01   0.781E-03 0.266E-03 -.700E-03
   -.603E-01 0.266E+00 0.285E+04   0.972E-01 -.274E+00 -.285E+04   -.220E-01 0.301E-02 -.114E+01   0.825E-03 0.342E-03 -.680E-03
   0.117E+00 0.493E+00 0.286E+04   -.920E-01 -.393E+00 -.285E+04   -.148E-01 -.250E-01 -.116E+01   -.134E-03 -.189E-03 -.687E-03
   -.351E-01 0.638E+00 0.285E+04   0.831E-01 -.624E+00 -.285E+04   -.309E-01 -.730E-02 -.118E+01   0.529E-03 0.599E-03 -.689E-03
   0.982E+00 0.567E+01 0.992E+03   -.962E+00 -.563E+01 -.992E+03   -.599E-01 -.109E+00 -.339E+00   -.211E-03 0.290E-03 -.211E-02
   0.249E+00 -.565E+00 0.995E+03   -.214E+00 0.560E+00 -.995E+03   -.456E-01 0.196E-02 -.455E+00   -.555E-03 0.227E-03 -.196E-02
   0.867E+00 0.154E+01 0.993E+03   -.825E+00 -.155E+01 -.992E+03   -.720E-01 -.153E-01 -.379E+00   0.675E-03 0.299E-03 -.166E-02
   0.280E+00 0.468E+00 0.995E+03   -.281E+00 -.477E+00 -.995E+03   -.196E-01 0.168E-03 -.461E+00   0.387E-03 -.647E-04 -.206E-02
   0.518E+01 -.245E+01 -.882E+03   -.517E+01 0.244E+01 0.881E+03   0.409E-02 0.339E-01 0.444E+00   0.554E-03 -.467E-03 -.274E-02
   0.280E+01 -.236E+01 -.878E+03   -.273E+01 0.229E+01 0.878E+03   -.765E-01 0.437E-01 0.506E+00   -.295E-04 -.116E-03 -.316E-02
   0.549E-01 -.480E+01 -.896E+03   -.159E+00 0.425E+01 0.896E+03   0.118E+00 0.550E+00 0.212E-01   -.423E-03 -.485E-03 -.277E-02
   -.679E+00 -.497E+01 -.870E+03   0.639E+00 0.491E+01 0.870E+03   0.552E-01 0.816E-01 0.603E+00   -.498E-03 0.167E-03 -.329E-02
   -.123E+01 0.439E+01 -.277E+04   0.120E+01 -.442E+01 0.277E+04   0.531E-01 0.310E-01 0.103E+01   0.265E-03 -.185E-04 -.217E-02
   0.103E+02 -.673E+01 -.277E+04   -.103E+02 0.672E+01 0.277E+04   0.107E+00 0.182E-01 0.110E+01   0.638E-03 -.598E-03 -.213E-02
   -.135E+01 -.183E+02 -.276E+04   0.124E+01 0.183E+02 0.276E+04   0.127E+00 0.250E-01 0.104E+01   -.368E-03 0.619E-04 -.248E-02
   0.250E+02 -.349E+02 -.273E+04   -.253E+02 0.351E+02 0.273E+04   0.317E+00 -.277E+00 0.117E+01   -.682E-04 -.673E-03 -.231E-02
   0.197E+00 -.251E+00 0.285E+04   -.169E+00 0.244E+00 -.285E+04   -.107E-01 0.610E-02 -.119E+01   -.199E-03 0.394E-04 -.600E-03
   -.141E+00 -.670E+00 0.285E+04   0.126E+00 0.679E+00 -.285E+04   0.186E-01 -.221E-02 -.117E+01   0.453E-04 0.713E-04 -.653E-03
   0.287E+00 -.282E+00 0.285E+04   -.262E+00 0.257E+00 -.285E+04   -.165E-01 0.178E-01 -.116E+01   -.471E-03 -.983E-04 -.777E-03
   0.234E+00 -.484E+00 0.285E+04   -.206E+00 0.493E+00 -.285E+04   -.116E-01 -.155E-01 -.119E+01   -.611E-04 -.298E-03 -.736E-03
   0.178E+01 -.289E+01 0.993E+03   -.170E+01 0.288E+01 -.993E+03   -.119E+00 0.521E-01 -.322E+00   0.475E-04 -.386E-03 -.149E-02
   0.293E+00 -.648E+00 0.992E+03   -.303E+00 0.658E+00 -.991E+03   -.481E-01 -.143E-02 -.356E+00   -.675E-04 -.518E-03 -.144E-02
   0.198E+01 -.347E+01 0.992E+03   -.198E+01 0.352E+01 -.992E+03   -.478E-01 0.239E-01 -.290E+00   -.134E-03 0.120E-03 -.150E-02
   0.222E+01 -.582E+00 0.991E+03   -.222E+01 0.584E+00 -.991E+03   -.694E-01 -.132E-01 -.240E+00   -.548E-03 -.294E-04 -.154E-02
   0.204E+01 0.666E+01 -.871E+03   -.207E+01 -.659E+01 0.871E+03   0.418E-01 -.848E-01 0.463E+00   0.147E-03 0.846E-03 -.315E-02
   -.246E+01 -.258E+00 -.886E+03   0.220E+01 0.426E+00 0.885E+03   0.265E+00 -.158E+00 0.255E+00   -.601E-03 -.706E-05 -.282E-02
   -.387E+01 0.491E+01 -.872E+03   0.388E+01 -.481E+01 0.872E+03   0.140E-02 -.111E+00 0.524E+00   0.227E-03 0.118E-03 -.295E-02
   -.656E+01 0.269E+00 -.883E+03   0.636E+01 -.242E+00 0.883E+03   0.203E+00 -.164E-01 0.454E+00   0.454E-03 -.552E-03 -.289E-02
   0.576E+02 0.140E+01 -.263E+04   -.577E+02 -.142E+01 0.263E+04   0.201E+00 0.396E-01 -.399E+01   -.257E-03 0.132E-04 -.182E-02
   0.244E+02 0.371E+02 -.273E+04   -.247E+02 -.373E+02 0.273E+04   0.320E+00 0.230E+00 0.121E+01   0.207E-03 0.108E-02 -.238E-02
   -.661E+02 -.594E+00 -.269E+04   0.677E+02 0.517E+00 0.269E+04   -.150E+01 0.921E-01 0.125E+01   -.421E-03 -.301E-03 -.218E-02
   -.151E+02 0.452E+02 -.269E+04   0.152E+02 -.460E+02 0.269E+04   -.118E+00 0.801E+00 0.133E+01   -.101E-03 0.556E-03 -.236E-02
   -.147E+00 0.269E+00 0.286E+04   0.148E+00 -.220E+00 -.285E+04   0.534E-02 -.303E-01 -.117E+01   -.738E-03 0.532E-04 -.814E-03
   0.217E+00 0.648E+00 0.285E+04   -.213E+00 -.635E+00 -.285E+04   -.455E-02 -.157E-01 -.118E+01   -.521E-03 0.650E-03 -.888E-03
   -.550E-01 0.240E+00 0.285E+04   0.802E-01 -.216E+00 -.285E+04   -.160E-01 -.142E-01 -.115E+01   0.881E-04 0.750E-03 -.854E-03
   -.359E-01 0.334E+00 0.285E+04   0.339E-01 -.326E+00 -.285E+04   0.823E-02 -.153E-03 -.118E+01   -.833E-03 0.385E-03 -.920E-03
   -.136E+00 0.129E+01 0.992E+03   0.164E+00 -.130E+01 -.991E+03   -.254E-01 -.146E-01 -.340E+00   0.237E-03 0.311E-03 -.157E-02
   0.561E+00 0.150E+01 0.994E+03   -.534E+00 -.148E+01 -.994E+03   -.529E-01 -.284E-01 -.424E+00   0.419E-03 0.226E-03 -.191E-02
   -.666E+00 0.288E+01 0.994E+03   0.699E+00 -.293E+01 -.993E+03   -.254E-01 -.291E-01 -.414E+00   -.701E-03 0.302E-03 -.208E-02
   -.170E+00 0.453E+00 0.995E+03   0.227E+00 -.435E+00 -.995E+03   -.415E-01 -.255E-01 -.456E+00   -.250E-03 0.551E-03 -.190E-02
   -.585E+01 -.345E+01 -.880E+03   0.577E+01 0.328E+01 0.880E+03   0.100E+00 0.173E+00 0.259E+00   -.611E-03 -.385E-03 -.298E-02
   -.169E+01 0.141E+01 -.886E+03   0.166E+01 -.143E+01 0.885E+03   0.253E-01 0.173E-01 0.470E+00   -.198E-03 0.280E-03 -.311E-02
   0.164E+00 -.733E+00 -.889E+03   -.137E+00 0.726E+00 0.889E+03   -.405E-01 0.625E-02 0.450E+00   0.493E-03 -.742E-03 -.262E-02
   0.248E+00 0.182E+01 -.891E+03   -.270E+00 -.185E+01 0.890E+03   0.601E-01 0.419E-01 0.460E+00   0.726E-03 0.863E-04 -.305E-02
   -.133E+01 -.560E+01 -.276E+04   0.126E+01 0.560E+01 0.276E+04   0.890E-01 0.139E-01 0.103E+01   -.300E-03 0.898E-04 -.219E-02
   -.192E+02 -.478E+02 -.270E+04   0.193E+02 0.487E+02 0.270E+04   -.331E-01 -.849E+00 0.134E+01   -.579E-03 -.571E-03 -.226E-02
   0.228E+01 0.152E+02 -.277E+04   -.233E+01 -.153E+02 0.277E+04   0.621E-01 0.908E-01 0.108E+01   0.402E-03 0.250E-03 -.221E-02
   -.184E+02 -.136E+02 -.276E+04   0.185E+02 0.137E+02 0.276E+04   -.570E-01 -.104E+00 0.111E+01   0.237E-04 -.454E-03 -.197E-02
   0.839E+02 0.162E+01 -.206E+04   -.106E+03 -.197E+01 0.211E+04   0.225E+02 0.354E+00 -.526E+02   -.607E-04 0.127E-04 0.520E-03
   -.766E+02 -.567E+00 -.120E+04   0.791E+02 0.620E+00 0.119E+04   -.251E+01 -.544E-01 0.864E+01   -.137E-03 -.902E-05 0.114E-03
   -.476E+02 -.325E+00 -.334E+03   0.511E+02 0.324E+00 0.334E+03   -.353E+01 -.268E-01 0.262E+00   -.118E-03 -.122E-04 0.661E-04
 -----------------------------------------------------------------------------------------------
   -.153E+02 -.406E+00 0.486E+02   -.142E-12 0.354E-12 0.665E-11   0.156E+02 0.517E+00 -.490E+02   -.224E-03 0.279E-04 -.121E+00
 
 
 POSITION                                       TOTAL-FORCE (eV/Angst)
 -----------------------------------------------------------------------------------
      2.80354      3.23729     12.28925         0.015688     -0.015465     -0.052537
      1.40174      0.80930     12.28925         0.047572     -0.026271     -0.092721
      5.60714      3.23729     12.28925         0.002752     -0.017916     -0.051185
      4.20534      0.80930     12.28925        -0.068462     -0.037867     -0.125518
      5.60726      1.61869     14.57818         0.009651      0.025726     -0.036198
      7.00906      4.04668     14.57818         0.035895     -0.047575      0.251109
      2.80366      1.61869     14.57818        -0.045948      0.020978      0.041899
      4.20546      4.04668     14.57818        -0.005606      0.028222      0.032979
      8.39721      9.71175     16.83998         0.015418      0.008335      0.003212
      4.19285      2.42609     16.84068         0.015833      0.020993      0.000982
      5.59283      0.00353     16.83488         0.000927      0.000305      0.009360
      7.00452      2.43739     16.89198         0.022477     -0.002434      0.001685
      2.75762      3.22903     19.15878         0.020246      0.012503     -0.006975
      1.35591      0.79680     19.14842         0.021191      0.009908      0.003206
      5.53857      3.23553     19.16000         0.004462     -0.001979      0.001648
      4.15461      0.80937     19.14533         0.009166     -0.000784     -0.000136
      5.60714      8.09326     12.28925         0.015699      0.008279     -0.058195
      4.20534      5.66527     12.28925         0.010902     -0.005652     -0.050059
      8.41074      8.09326     12.28925         0.005320      0.073241     -0.101402
      7.00894      5.66527     12.28925         0.012784      0.006081     -0.062838
      8.41086      6.47467     14.57818        -0.044406     -0.073876     -0.025319
      9.81266      8.90266     14.57818        -0.015932     -0.004000     -0.015411
      5.60726      6.47467     14.57818        -0.034214     -0.029320      0.050076
      7.00906      8.90266     14.57818        -0.024912     -0.010379      0.006128
      5.58277      4.85389     16.85158         0.006842      0.013303     -0.010385
      6.99637      7.28166     16.83849        -0.005999     -0.026142     -0.001955
      8.37879      4.83048     16.88704         0.008422     -0.003438     -0.018292
      9.79278      7.27971     16.82923         0.010705      0.011306     -0.006683
      5.55814      8.08647     19.15191         0.016647     -0.005159     -0.005864
      4.14808      5.66128     19.16081         0.029506      0.000969      0.004113
      8.35584      8.09753     19.14595         0.020978      0.005058      0.003572
      6.93558      5.68555     19.14706         0.011699      0.004351      0.005275
      8.41074      3.23729     12.28925         0.012074     -0.002293     -0.057527
      7.00894      0.80930     12.28925        -0.001045      0.005404     -0.057947
     11.21434      3.23729     12.28925         0.002795     -0.009137     -0.070333
      9.81254      0.80930     12.28925         0.011260     -0.008464     -0.084114
     11.21446      1.61869     14.57818        -0.049003      0.044868      0.010266
     12.61626      4.04668     14.57818        -0.062906      0.005628      0.085366
      8.41086      1.61869     14.57818        -0.051717      0.074474      0.173431
      9.81266      4.04668     14.57818        -0.074843     -0.012724      0.228511
     13.99578      9.70914     16.83839         0.009459     -0.007155      0.004967
      9.77965      2.43174     16.86917         0.002863      0.008021     -0.001177
     16.80908      9.71134     16.83396         0.004612     -0.006023      0.021097
     12.59402      2.42597     16.84984        -0.001833      0.008337     -0.001788
      8.33735      3.23715     19.32859         0.027754      0.020963      0.066480
      6.94268      0.78770     19.14263         0.020401      0.014479      0.010094
     11.19551      3.23122     19.17302         0.019175      0.013623     -0.027564
      9.76968      0.75675     19.11203         0.010923      0.003502      0.015383
     11.21434      8.09326     12.28925         0.000781      0.016904     -0.066670
      9.81254      5.66527     12.28925        -0.006416     -0.004013     -0.049170
     14.01794      8.09326     12.28925         0.004416      0.008655     -0.049779
     12.61614      5.66527     12.28925         0.000623      0.006230     -0.051288
     14.01806      6.47467     14.57818        -0.001161     -0.020110      0.072939
     15.41986      8.90266     14.57818        -0.029915     -0.008193     -0.001381
     11.21446      6.47467     14.57818         0.002232     -0.076274      0.003441
     12.61626      8.90266     14.57818         0.010315     -0.008408     -0.006906
     11.19053      4.84613     16.85620         0.012328     -0.001321     -0.010213
     12.59445      7.28125     16.84415        -0.007268      0.001293      0.009084
     14.00146      4.85179     16.85080        -0.017905     -0.003798     -0.005729
     15.39937      7.28038     16.85129         0.034232      0.016153     -0.009823
     11.15956      8.09510     19.14560         0.011955      0.004635     -0.004990
      9.76008      5.70843     19.12457         0.013768     -0.002106      0.010030
     13.96472      8.08042     19.15155        -0.001122      0.002292      0.000838
     12.57052      5.66947     19.14501         0.019806      0.005205     -0.001278
      8.57625      3.22612     22.26609        -0.006954      0.000228     -0.079447
      9.04464      3.23318     21.16910         0.029831     -0.002678      0.058231
     10.23294      3.23982     20.96304        -0.074819     -0.029497      0.173394
 -----------------------------------------------------------------------------------
    total drift:                                0.321810      0.111521     -0.543223


--------------------------------------------------------------------------------------------------------



  FREE ENERGIE OF THE ION-ELECTRON SYSTEM (eV)
  ---------------------------------------------------
  free  energy   TOTEN  =      -389.57458287 eV

  energy  without entropy=     -389.52742344  energy(sigma->0) =     -389.55886306
 


--------------------------------------------------------------------------------------------------------


    POTLOK:  cpu time    0.0253: real time    0.0266


--------------------------------------------------------------------------------------------------------


 stress matrix after NEB project (eV)
    -43.74566      0.58686     -0.49656
      0.58686    -46.36581      0.06309
     -0.49656      0.06309    -37.08932
  FORCES: max atom, RMS     0.191137    0.031335
  FORCE total and by dimension    0.256488    0.173394
  Stress total and by dimension   73.758243   46.365814
     LOOP+:  cpu time  314.2496: real time  315.1584
    4ORBIT:  cpu time    0.0000: real time    0.0000

 total amount of memory used by VASP MPI-rank0   103934. kBytes
=======================================================================

   base      :      30000. kBytes
   nonlr-proj:       3437. kBytes
   fftplans  :       2760. kBytes
   grid      :       5191. kBytes
   one-center:         77. kBytes
   wavefun   :      62469. kBytes
 
  
  
 General timing and accounting informations for this job:
 ========================================================
  
                  Total CPU time used (sec):      326.509
                            User time (sec):      326.009
                          System time (sec):        0.500
                         Elapsed time (sec):      327.915
  
                   Maximum memory used (kb):      329024.
                   Average memory used (kb):           0.
  
                          Minor page faults:        80578
                          Major page faults:            0
                 Voluntary context switches:         1230
