Pt                                      
           1
    11.214400    0.000000    0.000000
     5.607200    9.711955    0.000000
     0.000000    0.000000   31.445600
   Pt   O    C    H 
  64   1   1   1
Direct configuration=     1
   0.08333000  0.33333000  0.39081000
   0.08333000  0.08333000  0.39081000
   0.33333000  0.33333000  0.39081000
   0.33333000  0.08333000  0.39081000
   0.41667000  0.16667000  0.46360000
   0.41667000  0.41667000  0.46360000
   0.16667000  0.16667000  0.46360000
   0.16667000  0.41667000  0.46360000
   0.24879911  0.99997884  0.53552724
   0.24897854  0.24980477  0.53554950
   0.49853657  0.00036377  0.53536513
   0.49911612  0.25096833  0.53718099
   0.07966007  0.33247954  0.60926732
   0.07988646  0.08204288  0.60893809
   0.32730598  0.33314883  0.60930611
   0.32880177  0.08333772  0.60883957
   0.08333000  0.83333000  0.39081000
   0.08333000  0.58333000  0.39081000
   0.33333000  0.83333000  0.39081000
   0.33333000  0.58333000  0.39081000
   0.41667000  0.66667000  0.46360000
   0.41667000  0.91667000  0.46360000
   0.16667000  0.66667000  0.46360000
   0.16667000  0.91667000  0.46360000
   0.24792862  0.49978522  0.53589631
   0.24899253  0.74976238  0.53548007
   0.49845824  0.49737474  0.53702388
   0.49845153  0.74956206  0.53518543
   0.07931006  0.83263049  0.60904881
   0.07842924  0.58291912  0.60933196
   0.32821477  0.83376928  0.60885935
   0.32574482  0.58541733  0.60889470
   0.58333000  0.33333000  0.39081000
   0.58333000  0.08333000  0.39081000
   0.83333000  0.33333000  0.39081000
   0.83333000  0.08333000  0.39081000
   0.91667000  0.16667000  0.46360000
   0.91667000  0.41667000  0.46360000
   0.66667000  0.16667000  0.46360000
   0.66667000  0.41667000  0.46360000
   0.74816366  0.99970978  0.53547694
   0.74686899  0.25038647  0.53645581
   0.99891570  0.99993627  0.53533605
   0.99812606  0.24979170  0.53584093
   0.57679260  0.33331635  0.61466754
   0.57853260  0.08110650  0.60875375
   0.83196294  0.33270513  0.60972033
   0.83221275  0.07791931  0.60778080
   0.58333000  0.83333000  0.39081000
   0.58333000  0.58333000  0.39081000
   0.83333000  0.83333000  0.39081000
   0.83333000  0.58333000  0.39081000
   0.91667000  0.66667000  0.46360000
   0.91667000  0.91667000  0.46360000
   0.66667000  0.66667000  0.46360000
   0.66667000  0.91667000  0.46360000
   0.74837848  0.49898601  0.53604319
   0.74820067  0.74972035  0.53565999
   0.99874118  0.49956840  0.53587152
   0.99836273  0.74963059  0.53588694
   0.57834992  0.83351903  0.60884824
   0.57643012  0.58777305  0.60817944
   0.82924472  0.83200776  0.60903749
   0.82904582  0.58376168  0.60882949
   0.59866263  0.33218064  0.70808274
   0.64006620  0.33290720  0.67319757
   0.74568660  0.33359124  0.66664454
