   64   64  200    1
  0.5351303E+02  0.1121436E-08  0.1121436E-08  0.3144561E-08  0.5000000E-15
  1.000000000000000E-004
  CAR 
 Pt                                      
    640     10    384
 
  0.0000000E+00  0.0000000E+00  0.0000000E+00  0.6250000E-01
    1      -10.283424   1.000000
    2       -8.954980   1.000000
    3       -8.491598   1.000000
    4       -8.491561   1.000000
    5       -8.491526   1.000000
    6       -8.491198   1.000000
    7       -8.491123   1.000000
    8       -8.491084   1.000000
    9       -7.840291   1.000000
   10       -7.766289   1.000000
   11       -7.533211   1.000000
   12       -7.532934   1.000000
   13       -7.532929   1.000000
   14       -7.425127   1.000000
   15       -7.425103   1.000000
   16       -7.425046   1.000000
   17       -7.424824   1.000000
   18       -7.424776   1.000000
   19       -7.424674   1.000000
   20       -7.368406   1.000000
   21       -7.368395   1.000000
   22       -7.368036   1.000000
   23       -6.927999   1.000000
   24       -6.927832   1.000000
   25       -6.927819   1.000000
   26       -6.660037   1.000000
   27       -6.659995   1.000000
   28       -6.659981   1.000000
   29       -6.659808   1.000000
   30       -6.659805   1.000000
   31       -6.659737   1.000000
   32       -6.654553   1.000000
   33       -6.654543   1.000000
   34       -6.654495   1.000000
   35       -6.650176   1.000000
   36       -6.650123   1.000000
   37       -6.650052   1.000000
   38       -6.649880   1.000000
   39       -6.649768   1.000000
   40       -6.649739   1.000000
   41       -6.569013   1.000000
   42       -6.568945   1.000000
   43       -6.568942   1.000000
   44       -6.510778   1.000000
   45       -6.510738   1.000000
   46       -6.510717   1.000000
   47       -6.510678   1.000000
   48       -6.510621   1.000000
   49       -6.510604   1.000000
   50       -6.308688   1.000000
   51       -6.308657   1.000000
   52       -6.308614   1.000000
   53       -6.308289   1.000000
   54       -6.308219   1.000000
   55       -6.308186   1.000000
   56       -6.188842   1.000000
   57       -6.188803   1.000000
   58       -6.188785   1.000000
   59       -6.188550   1.000000
   60       -6.188536   1.000000
   61       -6.188482   1.000000
   62       -5.842023   1.000000
   63       -5.842003   1.000000
   64       -5.841944   1.000000
   65       -5.841697   1.000000
   66       -5.841670   1.000000
   67       -5.841659   1.000000
   68       -5.766464   1.000000
   69       -5.766459   1.000000
   70       -5.766332   1.000000
   71       -5.701504   1.000000
   72       -5.701473   1.000000
   73       -5.701436   1.000000
   74       -5.701357   1.000000
   75       -5.701348   1.000000
   76       -5.701288   1.000000
   77       -5.656187   1.000000
   78       -5.656131   1.000000
   79       -5.656069   1.000000
   80       -5.656039   1.000000
   81       -5.655963   1.000000
   82       -5.655859   1.000000
   83       -5.278806   1.000000
   84       -5.278783   1.000000
   85       -5.278750   1.000000
   86       -5.278532   1.000000
   87       -5.278499   1.000000
   88       -5.278411   1.000000
   89       -5.213947   1.000000
   90       -5.213915   1.000000
   91       -5.213911   1.000000
   92       -5.213881   1.000000
   93       -5.213837   1.000000
   94       -5.213825   1.000000
   95       -5.201476   1.000000
   96       -5.201467   1.000000
   97       -5.201451   1.000000
   98       -5.201308   1.000000
   99       -5.201299   1.000000
  100       -5.201275   1.000000
  101       -5.071117   1.000000
  102       -5.071069   1.000000
  103       -5.071017   1.000000
  104       -5.070804   1.000000
  105       -5.070762   1.000000
  106       -5.070727   1.000000
  107       -4.796516   1.000000
  108       -4.796474   1.000000
  109       -4.796444   1.000000
  110       -4.796348   1.000000
  111       -4.796333   1.000000
  112       -4.796298   1.000000
  113       -4.775412   1.000000
  114       -4.775176   1.000000
  115       -4.775161   1.000000
  116       -4.652275   1.000000
  117       -4.651902   1.000000
  118       -4.651891   1.000000
  119       -4.638078   1.000000
  120       -4.638025   1.000000
  121       -4.637987   1.000000
  122       -4.637648   1.000000
  123       -4.637637   1.000000
  124       -4.637562   1.000000
  125       -4.601658   1.000000
  126       -4.472266   1.000000
  127       -4.472240   1.000000
  128       -4.457835   1.000000
  129       -4.457826   1.000000
  130       -4.457802   1.000000
  131       -4.457796   1.000000
  132       -4.457782   1.000000
  133       -4.457757   1.000000
  134       -4.457582   1.000000
  135       -4.372918   1.000000
  136       -4.372898   1.000000
  137       -4.263965   1.000000
  138       -4.263915   1.000000
  139       -4.263873   1.000000
  140       -4.263564   1.000000
  141       -4.263483   1.000000
  142       -4.263450   1.000000
  143       -4.220107   1.000000
  144       -4.220101   1.000000
  145       -4.219763   1.000000
  146       -4.035575   1.000000
  147       -4.035554   1.000000
  148       -4.035516   1.000000
  149       -4.035274   1.000000
  150       -4.035208   1.000000
  151       -4.035207   1.000000
  152       -3.965043   1.000000
  153       -3.965017   1.000000
  154       -3.948618   1.000000
  155       -3.948501   1.000000
  156       -3.948421   1.000000
  157       -3.947745   1.000000
  158       -3.947623   1.000000
  159       -3.947548   1.000000
  160       -3.872159   1.000000
  161       -3.872143   1.000000
  162       -3.872066   1.000000
  163       -3.871734   1.000000
  164       -3.871659   1.000000
  165       -3.871628   1.000000
  166       -3.867533   1.000000
  167       -3.867504   1.000000
  168       -3.851236   1.000000
  169       -3.851224   1.000000
  170       -3.851134   1.000000
  171       -3.850479   1.000000
  172       -3.850468   1.000000
  173       -3.850366   1.000000
  174       -3.839767   1.000000
  175       -3.839686   1.000000
  176       -3.839620   1.000000
  177       -3.838969   1.000000
  178       -3.838867   1.000000
  179       -3.838803   1.000000
  180       -3.696000   1.000000
  181       -3.695970   1.000000
  182       -3.695881   1.000000
  183       -3.694822   1.000000
  184       -3.694777   1.000000
  185       -3.694680   1.000000
  186       -3.648463   1.000000
  187       -3.648446   1.000000
  188       -3.648407   1.000000
  189       -3.648034   1.000000
  190       -3.647983   1.000000
  191       -3.647971   1.000000
  192       -3.612847   1.000000
  193       -3.565502   1.000000
  194       -3.565474   1.000000
  195       -3.565448   1.000000
  196       -3.528762   1.000000
  197       -3.528754   1.000000
  198       -3.528687   1.000000
  199       -3.528116   1.000000
  200       -3.528041   1.000000
  201       -3.528027   1.000000
  202       -3.185409   1.000000
  203       -3.185381   1.000000
  204       -3.185338   1.000000
  205       -3.184982   1.000000
  206       -3.184937   1.000000
  207       -3.184892   1.000000
  208       -3.096101   1.000000
  209       -3.096089   1.000000
  210       -3.096076   1.000000
  211       -3.071544   1.000000
  212       -3.071457   1.000000
  213       -3.071420   1.000000
  214       -3.071332   1.000000
  215       -3.071257   1.000000
  216       -3.071211   1.000000
  217       -2.987887   1.000000
  218       -2.987878   1.000000
  219       -2.987606   1.000000
  220       -2.923813   1.000000
  221       -2.923758   1.000000
  222       -2.923704   1.000000
  223       -2.923505   1.000000
  224       -2.923466   1.000000
  225       -2.923452   1.000000
  226       -2.785857   1.000000
  227       -2.785809   1.000000
  228       -2.785715   1.000000
  229       -2.785283   1.000000
  230       -2.785142   1.000000
  231       -2.785101   1.000000
  232       -2.564741   1.000000
  233       -2.564721   1.000000
  234       -2.564637   1.000000
  235       -2.563435   1.000000
  236       -2.563397   1.000000
  237       -2.563357   1.000000
  238       -2.482753   1.000000
  239       -2.482739   1.000000
  240       -2.437045   1.000000
  241       -2.437015   1.000000
  242       -2.436984   1.000000
  243       -2.436975   1.000000
  244       -2.436956   1.000000
  245       -2.436942   1.000000
  246       -2.397400   1.000000
  247       -2.397301   1.000000
  248       -2.397201   1.000000
  249       -2.397088   1.000000
  250       -2.396935   1.000000
  251       -2.396842   1.000000
  252       -2.277354   1.000000
  253       -2.277335   1.000000
  254       -2.277269   1.000000
  255       -2.275471   1.000000
  256       -2.275422   1.000000
  257       -2.275395   1.000000
  258       -2.158573   1.000000
  259       -2.158542   1.000000
  260       -2.158488   1.000000
  261       -2.158206   1.000000
  262       -2.158107   1.000000
  263       -2.158087   1.000000
  264       -2.145103   1.000000
  265       -2.145087   1.000000
  266       -2.112088   1.000000
  267       -2.112077   1.000000
  268       -2.112011   1.000000
  269       -2.111998   1.000000
  270       -2.111958   1.000000
  271       -2.111920   1.000000
  272       -1.988489   1.000000
  273       -1.988475   1.000000
  274       -1.988341   1.000000
  275       -1.987821   1.000000
  276       -1.987728   1.000000
  277       -1.987697   1.000000
  278       -1.886581   1.000000
  279       -1.886576   1.000000
  280       -1.886470   1.000000
  281       -1.682069   1.000000
  282       -1.681791   1.000000
  283       -1.681787   1.000000
  284       -1.489059   1.000000
  285       -1.489032   1.000000
  286       -1.488988   1.000000
  287       -1.488723   1.000000
  288       -1.488674   1.000000
  289       -1.488637   1.000000
  290       -1.448433   1.000000
  291       -1.448432   1.000000
  292       -1.300366   1.000046
  293       -1.272911   1.000212
  294       -1.272900   1.000213
  295       -1.272861   1.000213
  296       -1.272742   1.000214
  297       -1.272717   1.000215
  298       -1.272703   1.000215
  299       -1.168341   1.014324
  300       -1.168330   1.014329
  301       -1.168019   1.014448
  302       -1.086040   1.022900
  303       -1.085944   1.022787
  304       -1.085942   1.022785
  305       -0.983500   0.461443
  306       -0.983498   0.461423
  307       -0.921989   0.054592
  308       -0.921974   0.054536
  309       -0.921956   0.054464
  310       -0.921942   0.054410
  311       -0.921932   0.054372
  312       -0.921919   0.054322
  313       -0.913693   0.025793
  314       -0.913679   0.025751
  315       -0.913653   0.025671
  316       -0.913534   0.025306
  317       -0.913510   0.025234
  318       -0.913494   0.025183
  319       -0.895900  -0.014965
  320       -0.895891  -0.014979
  321       -0.895830  -0.015075
  322       -0.719908  -0.000495
  323       -0.719840  -0.000494
  324       -0.719832  -0.000494
  325       -0.675186  -0.000045
  326       -0.675169  -0.000045
  327       -0.675131  -0.000045
  328       -0.675122  -0.000044
  329       -0.675099  -0.000044
  330       -0.675096  -0.000044
  331       -0.670626  -0.000034
  332       -0.670574  -0.000034
  333       -0.670564  -0.000034
  334       -0.670158  -0.000033
  335       -0.670130  -0.000033
  336       -0.670083  -0.000033
  337       -0.473050  -0.000000
  338       -0.473037  -0.000000
  339       -0.472966  -0.000000
  340       -0.439092  -0.000000
  341       -0.439081  -0.000000
  342       -0.438868  -0.000000
  343       -0.256496  -0.000000
  344        0.005501  -0.000000
  345        0.005602  -0.000000
  346        0.005607  -0.000000
  347        0.988891  -0.000000
  348        0.988905  -0.000000
  349        0.988908  -0.000000
  350        0.988936  -0.000000
  351        0.988946  -0.000000
  352        0.988968  -0.000000
  353        1.412526  -0.000000
  354        1.412618  -0.000000
  355        1.412640  -0.000000
  356        1.413333  -0.000000
  357        1.413357  -0.000000
  358        1.413448  -0.000000
  359        1.419358  -0.000000
  360        1.419371  -0.000000
  361        1.419444  -0.000000
  362        1.509825  -0.000000
  363        1.509859  -0.000000
  364        1.509869  -0.000000
  365        1.509947  -0.000000
  366        1.509956  -0.000000
  367        1.509972  -0.000000
  368        1.730964  -0.000000
  369        1.731227  -0.000000
  370        1.731241  -0.000000
  371        2.041067   0.000000
  372        2.041112   0.000000
  373        2.041122   0.000000
  374        2.653272   0.000000
  375        2.653282   0.000000
  376        2.653303   0.000000
  377        2.653322   0.000000
  378        2.653355   0.000000
  379        2.653377   0.000000
  380        3.735566   0.000000
  381        3.735662   0.000000
  382        3.735956   0.000000
  383        3.736182   0.000000
  384        3.736222   0.000000
 
  0.2500000E+00 -0.1294993E-16  0.0000000E+00  0.1250000E+00
    1      -10.150022   1.000000
    2       -9.175168   1.000000
    3       -8.823390   1.000000
    4       -8.746603   1.000000
    5       -8.746577   1.000000
    6       -8.080934   1.000000
    7       -8.080912   1.000000
    8       -7.920187   1.000000
    9       -7.907749   1.000000
   10       -7.705120   1.000000
   11       -7.641232   1.000000
   12       -7.567523   1.000000
   13       -7.567482   1.000000
   14       -7.538818   1.000000
   15       -7.441336   1.000000
   16       -7.441142   1.000000
   17       -7.324206   1.000000
   18       -7.268988   1.000000
   19       -7.268728   1.000000
   20       -7.194452   1.000000
   21       -7.182042   1.000000
   22       -7.182009   1.000000
   23       -7.015035   1.000000
   24       -7.015017   1.000000
   25       -6.888421   1.000000
   26       -6.866046   1.000000
   27       -6.860386   1.000000
   28       -6.860254   1.000000
   29       -6.842367   1.000000
   30       -6.842099   1.000000
   31       -6.756532   1.000000
   32       -6.701102   1.000000
   33       -6.700877   1.000000
   34       -6.668492   1.000000
   35       -6.658398   1.000000
   36       -6.655451   1.000000
   37       -6.655425   1.000000
   38       -6.627064   1.000000
   39       -6.627046   1.000000
   40       -6.557441   1.000000
   41       -6.557392   1.000000
   42       -6.553109   1.000000
   43       -6.553091   1.000000
   44       -6.537728   1.000000
   45       -6.537707   1.000000
   46       -6.500794   1.000000
   47       -6.451721   1.000000
   48       -6.451690   1.000000
   49       -6.448946   1.000000
   50       -6.448890   1.000000
   51       -6.409544   1.000000
   52       -6.409531   1.000000
   53       -6.360231   1.000000
   54       -6.288902   1.000000
   55       -6.288800   1.000000
   56       -6.246831   1.000000
   57       -6.246804   1.000000
   58       -6.188298   1.000000
   59       -6.188288   1.000000
   60       -6.143487   1.000000
   61       -6.058970   1.000000
   62       -6.058956   1.000000
   63       -6.045912   1.000000
   64       -6.045642   1.000000
   65       -6.016477   1.000000
   66       -6.016456   1.000000
   67       -5.948581   1.000000
   68       -5.948548   1.000000
   69       -5.749777   1.000000
   70       -5.749734   1.000000
   71       -5.729404   1.000000
   72       -5.729314   1.000000
   73       -5.723525   1.000000
   74       -5.669647   1.000000
   75       -5.669508   1.000000
   76       -5.607489   1.000000
   77       -5.607457   1.000000
   78       -5.582890   1.000000
   79       -5.582863   1.000000
   80       -5.542530   1.000000
   81       -5.542495   1.000000
   82       -5.440879   1.000000
   83       -5.440672   1.000000
   84       -5.410718   1.000000
   85       -5.409381   1.000000
   86       -5.381103   1.000000
   87       -5.381079   1.000000
   88       -5.332880   1.000000
   89       -5.332857   1.000000
   90       -5.319487   1.000000
   91       -5.319468   1.000000
   92       -5.256541   1.000000
   93       -5.256507   1.000000
   94       -5.226636   1.000000
   95       -5.226615   1.000000
   96       -5.168465   1.000000
   97       -5.168372   1.000000
   98       -5.129252   1.000000
   99       -5.129211   1.000000
  100       -5.115288   1.000000
  101       -5.115267   1.000000
  102       -5.067079   1.000000
  103       -5.037367   1.000000
  104       -5.037337   1.000000
  105       -4.982496   1.000000
  106       -4.850711   1.000000
  107       -4.850625   1.000000
  108       -4.841985   1.000000
  109       -4.841964   1.000000
  110       -4.775052   1.000000
  111       -4.722072   1.000000
  112       -4.722063   1.000000
  113       -4.708714   1.000000
  114       -4.708609   1.000000
  115       -4.687700   1.000000
  116       -4.660038   1.000000
  117       -4.642487   1.000000
  118       -4.630070   1.000000
  119       -4.622358   1.000000
  120       -4.622340   1.000000
  121       -4.621455   1.000000
  122       -4.621432   1.000000
  123       -4.597754   1.000000
  124       -4.597466   1.000000
  125       -4.573515   1.000000
  126       -4.545828   1.000000
  127       -4.521714   1.000000
  128       -4.521702   1.000000
  129       -4.479907   1.000000
  130       -4.479895   1.000000
  131       -4.448431   1.000000
  132       -4.448344   1.000000
  133       -4.411287   1.000000
  134       -4.411269   1.000000
  135       -4.383519   1.000000
  136       -4.375039   1.000000
  137       -4.298576   1.000000
  138       -4.279822   1.000000
  139       -4.269535   1.000000
  140       -4.269531   1.000000
  141       -4.231908   1.000000
  142       -4.197648   1.000000
  143       -4.197330   1.000000
  144       -4.193612   1.000000
  145       -4.193584   1.000000
  146       -4.188414   1.000000
  147       -4.170808   1.000000
  148       -4.165459   1.000000
  149       -4.110108   1.000000
  150       -4.110097   1.000000
  151       -4.039672   1.000000
  152       -4.035901   1.000000
  153       -4.035892   1.000000
  154       -4.023074   1.000000
  155       -4.023055   1.000000
  156       -4.022338   1.000000
  157       -4.021847   1.000000
  158       -3.975371   1.000000
  159       -3.964657   1.000000
  160       -3.964655   1.000000
  161       -3.951426   1.000000
  162       -3.934559   1.000000
  163       -3.934540   1.000000
  164       -3.918727   1.000000
  165       -3.918706   1.000000
  166       -3.905889   1.000000
  167       -3.876509   1.000000
  168       -3.846564   1.000000
  169       -3.846554   1.000000
  170       -3.784950   1.000000
  171       -3.784943   1.000000
  172       -3.784146   1.000000
  173       -3.783771   1.000000
  174       -3.776825   1.000000
  175       -3.774623   1.000000
  176       -3.757505   1.000000
  177       -3.757494   1.000000
  178       -3.709691   1.000000
  179       -3.696288   1.000000
  180       -3.696278   1.000000
  181       -3.679526   1.000000
  182       -3.677375   1.000000
  183       -3.677360   1.000000
  184       -3.670779   1.000000
  185       -3.653121   1.000000
  186       -3.622996   1.000000
  187       -3.622986   1.000000
  188       -3.602690   1.000000
  189       -3.602686   1.000000
  190       -3.523618   1.000000
  191       -3.523612   1.000000
  192       -3.481233   1.000000
  193       -3.481231   1.000000
  194       -3.468001   1.000000
  195       -3.467720   1.000000
  196       -3.374746   1.000000
  197       -3.374546   1.000000
  198       -3.373653   1.000000
  199       -3.373619   1.000000
  200       -3.299276   1.000000
  201       -3.276449   1.000000
  202       -3.276353   1.000000
  203       -3.275766   1.000000
  204       -3.267972   1.000000
  205       -3.267953   1.000000
  206       -3.186257   1.000000
  207       -3.149497   1.000000
  208       -3.093273   1.000000
  209       -3.091989   1.000000
  210       -3.080039   1.000000
  211       -3.061806   1.000000
  212       -3.061790   1.000000
  213       -3.030260   1.000000
  214       -3.030220   1.000000
  215       -3.028833   1.000000
  216       -3.010014   1.000000
  217       -3.009988   1.000000
  218       -2.999791   1.000000
  219       -2.999770   1.000000
  220       -2.960460   1.000000
  221       -2.960444   1.000000
  222       -2.935129   1.000000
  223       -2.935099   1.000000
  224       -2.866854   1.000000
  225       -2.866783   1.000000
  226       -2.815141   1.000000
  227       -2.766985   1.000000
  228       -2.766944   1.000000
  229       -2.678124   1.000000
  230       -2.678104   1.000000
  231       -2.649365   1.000000
  232       -2.569638   1.000000
  233       -2.555772   1.000000
  234       -2.543396   1.000000
  235       -2.543361   1.000000
  236       -2.529036   1.000000
  237       -2.529011   1.000000
  238       -2.480587   1.000000
  239       -2.480563   1.000000
  240       -2.465170   1.000000
  241       -2.465152   1.000000
  242       -2.407917   1.000000
  243       -2.341030   1.000000
  244       -2.340782   1.000000
  245       -2.329660   1.000000
  246       -2.329646   1.000000
  247       -2.312145   1.000000
  248       -2.303897   1.000000
  249       -2.303880   1.000000
  250       -2.263689   1.000000
  251       -2.156551   1.000000
  252       -2.156508   1.000000
  253       -2.156139   1.000000
  254       -2.156116   1.000000
  255       -2.127624   1.000000
  256       -2.127486   1.000000
  257       -2.114977   1.000000
  258       -2.100162   1.000000
  259       -2.100132   1.000000
  260       -2.084202   1.000000
  261       -2.084179   1.000000
  262       -2.037101   1.000000
  263       -2.037069   1.000000
  264       -1.999552   1.000000
  265       -1.999539   1.000000
  266       -1.983167   1.000000
  267       -1.983147   1.000000
  268       -1.974309   1.000000
  269       -1.968191   1.000000
  270       -1.968144   1.000000
  271       -1.915811   1.000000
  272       -1.900371   1.000000
  273       -1.887917   1.000000
  274       -1.846829   1.000000
  275       -1.846809   1.000000
  276       -1.839550   1.000000
  277       -1.839466   1.000000
  278       -1.837006   1.000000
  279       -1.810898   1.000000
  280       -1.810878   1.000000
  281       -1.699550   1.000000
  282       -1.662614   1.000000
  283       -1.654023   1.000000
  284       -1.654007   1.000000
  285       -1.555252   1.000000
  286       -1.555158   1.000000
  287       -1.554158   1.000000
  288       -1.554144   1.000000
  289       -1.481785   1.000000
  290       -1.481772   1.000000
  291       -1.473962   1.000000
  292       -1.468479   1.000000
  293       -1.451020   1.000000
  294       -1.428607   1.000000
  295       -1.376324   1.000000
  296       -1.338633   1.000004
  297       -1.338628   1.000004
  298       -1.262308   1.000366
  299       -1.262146   1.000369
  300       -1.258154   1.000450
  301       -1.258148   1.000451
  302       -1.199574   1.005415
  303       -1.199541   1.005422
  304       -1.147149   1.023488
  305       -1.090676   1.027632
  306       -1.090666   1.027623
  307       -1.083700   1.019989
  308       -1.074996   1.005723
  309       -1.074992   1.005715
  310       -1.064499   0.980364
  311       -1.064481   0.980311
  312       -1.046180   0.911391
  313       -1.012577   0.700710
  314       -1.012568   0.700648
  315       -1.000327   0.602934
  316       -1.000303   0.602740
  317       -0.976558   0.403360
  318       -0.946870   0.182039
  319       -0.946868   0.182022
  320       -0.936061   0.119112
  321       -0.918129   0.040362
  322       -0.918090   0.040227
  323       -0.887027  -0.026168
  324       -0.827092  -0.022618
  325       -0.808289  -0.014519
  326       -0.808273  -0.014513
  327       -0.799474  -0.011356
  328       -0.799459  -0.011351
  329       -0.784473  -0.007107
  330       -0.784408  -0.007092
  331       -0.726528  -0.000681
  332       -0.715013  -0.000389
  333       -0.715004  -0.000389
  334       -0.674883  -0.000044
  335       -0.674851  -0.000044
  336       -0.671127  -0.000035
  337       -0.637386  -0.000004
  338       -0.625536  -0.000002
  339       -0.625530  -0.000002
  340       -0.582891  -0.000000
  341       -0.326668  -0.000000
  342       -0.326661  -0.000000
  343       -0.226134  -0.000000
  344       -0.019786  -0.000000
  345       -0.019771  -0.000000
  346        0.201682  -0.000000
  347        0.218914  -0.000000
  348        0.218926  -0.000000
  349        0.434682  -0.000000
  350        0.434762  -0.000000
  351        0.445495  -0.000000
  352        0.752158  -0.000000
  353        0.949299  -0.000000
  354        0.949331  -0.000000
  355        1.075215  -0.000000
  356        1.175625  -0.000000
  357        1.175629  -0.000000
  358        1.286841  -0.000000
  359        1.286849  -0.000000
  360        1.298151  -0.000000
  361        1.298220  -0.000000
  362        1.451790  -0.000000
  363        1.451897  -0.000000
  364        1.801222   0.000000
  365        1.801237   0.000000
  366        1.821648   0.000000
  367        1.821650   0.000000
  368        2.046025   0.000000
  369        2.046047   0.000000
  370        2.059572   0.000000
  371        2.575591   0.000000
  372        2.575601   0.000000
  373        2.629591   0.000000
  374        2.874894   0.000000
  375        2.874919   0.000000
  376        2.891896   0.000000
  377        2.892028   0.000000
  378        3.220700   0.000000
  379        3.332530   0.000000
  380        3.332566   0.000000
  381        3.333943   0.000000
  382        3.333957   0.000000
  383        4.117593   0.000000
  384        4.117614   0.000000
 
  0.5000000E+00 -0.2589986E-16  0.0000000E+00  0.6250000E-01
    1       -9.764143   1.000000
    2       -9.764047   1.000000
    3       -8.832711   1.000000
    4       -8.832684   1.000000
    5       -8.450572   1.000000
    6       -8.450565   1.000000
    7       -7.612739   1.000000
    8       -7.612697   1.000000
    9       -7.610712   1.000000
   10       -7.610619   1.000000
   11       -7.555771   1.000000
   12       -7.555750   1.000000
   13       -7.555451   1.000000
   14       -7.555430   1.000000
   15       -7.331635   1.000000
   16       -7.331548   1.000000
   17       -7.287554   1.000000
   18       -7.287418   1.000000
   19       -7.223995   1.000000
   20       -7.223915   1.000000
   21       -7.184643   1.000000
   22       -7.184496   1.000000
   23       -7.184372   1.000000
   24       -7.184308   1.000000
   25       -7.005585   1.000000
   26       -7.005442   1.000000
   27       -7.005232   1.000000
   28       -7.005179   1.000000
   29       -6.883910   1.000000
   30       -6.883896   1.000000
   31       -6.883659   1.000000
   32       -6.883613   1.000000
   33       -6.729912   1.000000
   34       -6.729847   1.000000
   35       -6.650728   1.000000
   36       -6.650613   1.000000
   37       -6.650537   1.000000
   38       -6.650463   1.000000
   39       -6.605756   1.000000
   40       -6.605707   1.000000
   41       -6.534138   1.000000
   42       -6.534117   1.000000
   43       -6.517230   1.000000
   44       -6.517206   1.000000
   45       -6.502426   1.000000
   46       -6.502411   1.000000
   47       -6.428354   1.000000
   48       -6.428329   1.000000
   49       -6.379704   1.000000
   50       -6.379681   1.000000
   51       -6.379528   1.000000
   52       -6.379517   1.000000
   53       -6.342151   1.000000
   54       -6.342026   1.000000
   55       -6.296861   1.000000
   56       -6.296753   1.000000
   57       -6.296749   1.000000
   58       -6.296652   1.000000
   59       -6.170605   1.000000
   60       -6.170576   1.000000
   61       -6.170509   1.000000
   62       -6.170492   1.000000
   63       -6.112132   1.000000
   64       -6.112049   1.000000
   65       -6.112016   1.000000
   66       -6.111899   1.000000
   67       -5.995552   1.000000
   68       -5.995547   1.000000
   69       -5.741200   1.000000
   70       -5.741179   1.000000
   71       -5.741044   1.000000
   72       -5.741026   1.000000
   73       -5.717336   1.000000
   74       -5.717300   1.000000
   75       -5.677727   1.000000
   76       -5.677667   1.000000
   77       -5.626614   1.000000
   78       -5.626597   1.000000
   79       -5.626560   1.000000
   80       -5.626553   1.000000
   81       -5.599715   1.000000
   82       -5.599641   1.000000
   83       -5.420123   1.000000
   84       -5.420100   1.000000
   85       -5.419780   1.000000
   86       -5.419768   1.000000
   87       -5.378538   1.000000
   88       -5.378532   1.000000
   89       -5.357324   1.000000
   90       -5.357263   1.000000
   91       -5.298682   1.000000
   92       -5.298659   1.000000
   93       -5.256477   1.000000
   94       -5.256438   1.000000
   95       -5.191224   1.000000
   96       -5.191182   1.000000
   97       -5.075745   1.000000
   98       -5.075732   1.000000
   99       -5.075721   1.000000
  100       -5.075670   1.000000
  101       -5.026172   1.000000
  102       -5.026128   1.000000
  103       -5.026085   1.000000
  104       -5.026032   1.000000
  105       -5.012158   1.000000
  106       -5.012107   1.000000
  107       -4.831176   1.000000
  108       -4.831069   1.000000
  109       -4.821885   1.000000
  110       -4.821868   1.000000
  111       -4.821740   1.000000
  112       -4.821708   1.000000
  113       -4.744100   1.000000
  114       -4.743972   1.000000
  115       -4.735656   1.000000
  116       -4.735618   1.000000
  117       -4.662701   1.000000
  118       -4.662697   1.000000
  119       -4.629488   1.000000
  120       -4.629480   1.000000
  121       -4.509373   1.000000
  122       -4.509336   1.000000
  123       -4.509115   1.000000
  124       -4.509045   1.000000
  125       -4.460283   1.000000
  126       -4.460270   1.000000
  127       -4.408552   1.000000
  128       -4.408542   1.000000
  129       -4.398829   1.000000