 vasp.5.4.4.18Apr17-6-g9f103f2a35 (build May 23 2022 10:35:18) complex          
  
 executed on           IFC18_impi date 2023.06.19  23:35:09
 running on   64 total cores
 distrk:  each k-point on   64 cores,    1 groups
 distr:  one band on NCORES_PER_BAND=  32 cores,    2 groups


--------------------------------------------------------------------------------------------------------


 INCAR:
 POTCAR:    PAW_PBE Pt 04Feb2005                  

 ----------------------------------------------------------------------------- 
|                                                                             |
|           W    W    AA    RRRRR   N    N  II  N    N   GGGG   !!!           |
|           W    W   A  A   R    R  NN   N  II  NN   N  G    G  !!!           |
|           W    W  A    A  R    R  N N  N  II  N N  N  G       !!!           |
|           W WW W  AAAAAA  RRRRR   N  N N  II  N  N N  G  GGG   !            |
|           WW  WW  A    A  R   R   N   NN  II  N   NN  G    G                |
|           W    W  A    A  R    R  N    N  II  N    N   GGGG   !!!           |
|                                                                             |
|      For optimal performance we recommend to set                            |
|        NCORE= 4 - approx SQRT( number of cores)                             |
|      NCORE specifies how many cores store one orbital (NPAR=cpu/NCORE).     |
|      This setting can  greatly improve the performance of VASP for DFT.     |
|      The default,   NCORE=1            might be grossly inefficient         |
|      on modern multi-core architectures or massively parallel machines.     |
|      Do your own testing !!!!                                               |
|      Unfortunately you need to use the default for GW and RPA calculations. |
|      (for HF NCORE is supported but not extensively tested yet)             |
|                                                                             |
 ----------------------------------------------------------------------------- 

 POTCAR:    PAW_PBE Pt 04Feb2005                  
   VRHFIN =Pt: s1d9                                                             
   LEXCH  = PE                                                                  
   EATOM  =   729.1176 eV,   53.5886 Ry                                         
                                                                                
   TITEL  = PAW_PBE Pt 04Feb2005                                                
   LULTRA =        F    use ultrasoft PP ?                                      
   IUNSCR =        1    unscreen: 0-lin 1-nonlin 2-no                           
   RPACOR =    2.330    partial core radius                                     
   POMASS =  195.080; ZVAL   =   10.000    mass and valenz                      
   RCORE  =    2.600    outmost cutoff radius                                   
   RWIGS  =    2.750; RWIGS  =    1.455    wigner-seitz radius (au A)           
   ENMAX  =  230.283; ENMIN  =  172.712 eV                                      
   ICORE  =        3    local potential                                         
   LCOR   =        T    correct aug charges                                     
   LPAW   =        T    paw PP                                                  
   EAUG   =  358.966                                                            
   DEXC   =    0.000                                                            
   RMAX   =    2.658    core radius for proj-oper                               
   RAUG   =    1.300    factor for augmentation sphere                          
   RDEP   =    2.761    radius for radial grids                                 
   RDEPT  =    2.203    core radius for aug-charge                              
                                                                                
   Atomic configuration                                                         
   16 entries                                                                   
     n  l   j            E        occ.                                          
     1  0  0.50    -78401.1885   2.0000                                         
     2  0  0.50    -13770.7750   2.0000                                         
     2  1  1.50    -11931.0468   6.0000                                         
     3  0  0.50     -3234.7234   2.0000                                         
     3  1  1.50     -2699.2216   6.0000                                         
     3  2  2.50     -2119.5714  10.0000                                         
     4  0  0.50      -695.1528   2.0000                                         
     4  1  1.50      -519.6034   6.0000                                         
     4  2  2.50      -306.6786  10.0000                                         
     4  3  3.50       -70.1041  14.0000                                         
     5  0  0.50      -101.7747   2.0000                                         
     5  1  1.50       -55.9873   6.0000                                         
     5  2  2.50        -6.1423   9.0000                                         
     6  0  0.50        -5.6573   1.0000                                         
     6  1  1.50        -6.8029   0.0000                                         
     5  3  2.50        -1.3606   0.0000                                         
   Description                                                                  
     l       E           TYP  RCUT    TYP  RCUT                                 
     2     -6.1423404     23  2.500                                             
     2     -7.5029230     23  2.500                                             
     0     -5.6573207     23  2.500                                             
     0      0.7416693     23  2.500                                             
     1     -2.7211652     23  2.600                                             
     1     20.4087390     23  2.600                                             
     3     -1.3605826     23  2.500                                             
  local pseudopotential read in
  partial core-charges read in
  partial kinetic energy density read in
  atomic valenz-charges read in
  non local Contribution for L=           2  read in
    real space projection operators read in
  non local Contribution for L=           2  read in
    real space projection operators read in
  non local Contribution for L=           0  read in
    real space projection operators read in
  non local Contribution for L=           0  read in
    real space projection operators read in
  non local Contribution for L=           1  read in
    real space projection operators read in
  non local Contribution for L=           1  read in
    real space projection operators read in
    PAW grid and wavefunctions read in
 
   number of l-projection  operators is LMAX  =           6
   number of lm-projection operators is LMMAX =          18
 
 Optimization of the real space projectors (new method)

 maximal supplied QI-value         = 14.36
 optimisation between [QCUT,QGAM] = [ 10.20, 20.39] = [ 29.12,116.47] Ry 
 Optimized for a Real-space Cutoff    1.42 Angstroem

   l    n(q)    QCUT    max X(q) W(low)/X(q) W(high)/X(q)  e(spline) 
   2      8    10.197    66.195    0.74E-03    0.54E-03    0.15E-06
   2      8    10.197    64.643    0.76E-03    0.55E-03    0.15E-06
   0      9    10.197    95.520    0.30E-03    0.12E-03    0.68E-07
   0      9    10.197    63.403    0.29E-03    0.12E-03    0.65E-07
   1      8    10.197    19.961    0.11E-02    0.12E-02    0.15E-06
   1      8    10.197    13.289    0.93E-03    0.10E-02    0.13E-06
  PAW_PBE Pt 04Feb2005                  :
 energy of atom  1       EATOM= -729.1176
 kinetic energy error for atom=    0.0056 (will be added to EATOM!!)
 
 
 POSCAR: Pt                                      
  positions in cartesian coordinates
  No initial velocities read in
 exchange correlation table for  LEXCH =        8
   RHO(1)=    0.500       N(1)  =     2000
   RHO(2)=  100.500       N(2)  =     4000

 VTST: version 3.2, (02/03/18)

 CHAIN: initializing optimizer
 
 OPT: Using VASP Conjugate-Gradient optimizer
 CHAIN: Read ICHAIN            0
 
 POSCAR: Pt                                      
  positions in cartesian coordinates
  No initial velocities read in
 


--------------------------------------------------------------------------------------------------------


 ion  position               nearest neighbor table
   1  0.083  0.333  0.391-   2 2.80  18 2.80   8 2.80  35 2.80   3 2.80   7 2.80  52 2.80   4 2.80
                            38 2.80
   2  0.083  0.083  0.391-   1 2.80  17 2.80   7 2.80  36 2.80   4 2.80  24 2.80  19 2.80  35 2.80
                            37 2.80
   3  0.333  0.333  0.391-  20 2.80   4 2.80   6 2.80  33 2.80   5 2.80   1 2.80  18 2.80  34 2.80
                             8 2.80
   4  0.333  0.083  0.391-  19 2.80   3 2.80   5 2.80  34 2.80  22 2.80   2 2.80  49 2.80   1 2.80
                             7 2.80
   5  0.417  0.167  0.464-  22 2.80   6 2.80   4 2.80  12 2.80   7 2.80   3 2.80  39 2.80  11 2.80
                             8 2.80  56 2.80  34 2.80  10 2.80
   6  0.417  0.417  0.464-  21 2.80   5 2.80   3 2.80  27 2.80   8 2.80  20 2.80  40 2.80  12 2.80
                            39 2.80  23 2.80  25 2.80  33 2.80
   7  0.167  0.167  0.464-   8 2.80  24 2.80  10 2.80   2 2.80   5 2.80   9 2.80  37 2.80   1 2.80
                            38 2.80  22 2.80  44 2.80   4 2.80
   8  0.167  0.417  0.464-   7 2.80  23 2.80  25 2.80   1 2.80   6 2.80  10 2.80  38 2.80  18 2.80
                             5 2.80  53 2.80   3 2.80  59 2.80
   9  0.250  0.000  0.536-  26 2.80  10 2.80  24 2.80  16 2.80  43 2.80   7 2.80  11 2.80  31 2.80
                            44 2.80  28 2.80  22 2.80  14 2.80
  10  0.250  0.250  0.536-  25 2.80   9 2.80   7 2.80  15 2.80  44 2.80   8 2.80  12 2.80  16 2.80
                            11 2.80  59 2.80  13 2.80   5 2.80
  11  0.500  0.000  0.536-  12 2.80  28 2.80  46 2.80  22 2.80  41 2.80  61 2.80   9 2.80   5 2.80
                            10 2.80  58 2.80  16 2.80  56 2.80
  12  0.500  0.250  0.536-  11 2.80  27 2.80  45 2.80   5 2.80  42 2.80  46 2.80  10 2.80   6 2.80
                            41 2.80  25 2.80  39 2.80  15 2.80
  13  0.083  0.333  0.609-  14 2.80  30 2.80  44 2.80  47 2.80  59 2.80  15 2.80  64 2.80  16 2.80
                            10 2.80
  14  0.083  0.083  0.609-  13 2.80  29 2.80  43 2.80  48 2.80  44 2.80  16 2.80  31 2.80  47 2.80
                             9 2.80
  15  0.333  0.333  0.609-  32 2.80  16 2.80  10 2.80  45 2.80  13 2.80  25 2.80  30 2.80  46 2.80
                            12 2.80
  16  0.333  0.083  0.609-  31 2.80  15 2.80   9 2.80  46 2.80  14 2.80  10 2.80  61 2.80  13 2.80
                            11 2.80
  17  0.083  0.833  0.391-  18 2.80   2 2.80  24 2.80  51 2.80  19 2.80  23 2.80  36 2.80  20 2.80
                            54 2.80
  18  0.083  0.583  0.391-  17 2.80   1 2.80  23 2.80  52 2.80  20 2.80   8 2.80   3 2.80  51 2.80
                            53 2.80
  19  0.333  0.833  0.391-   4 2.80  20 2.80  22 2.80  49 2.80  21 2.80  17 2.80   2 2.80  50 2.80
                            24 2.80
  20  0.333  0.583  0.391-   3 2.80  19 2.80  21 2.80  50 2.80   6 2.80  18 2.80  33 2.80  17 2.80
                            23 2.80
  21  0.417  0.667  0.464-   6 2.80  22 2.80  20 2.80  28 2.80  23 2.80  19 2.80  55 2.80  27 2.80
                            24 2.80  40 2.80  50 2.80  26 2.80
  22  0.417  0.917  0.464-   5 2.80  21 2.80  19 2.80  11 2.80  24 2.80   4 2.80  56 2.80  28 2.80
                            55 2.80   7 2.80   9 2.80  49 2.80
  23  0.167  0.667  0.464-  24 2.80   8 2.80  26 2.80  18 2.80  21 2.80  25 2.80  53 2.80  17 2.80
                            54 2.80   6 2.80  60 2.80  20 2.80
  24  0.167  0.917  0.464-  23 2.80   7 2.80   9 2.80  17 2.80  22 2.80  26 2.80  54 2.80   2 2.80
                            21 2.80  37 2.80  19 2.80  43 2.80
  25  0.250  0.500  0.536-  10 2.80  26 2.80   8 2.80  32 2.80  59 2.80  23 2.80  27 2.80  15 2.80
                            60 2.80  12 2.80   6 2.80  30 2.80
  26  0.250  0.750  0.536-   9 2.80  25 2.80  23 2.80  31 2.80  60 2.80  24 2.80  28 2.80  32 2.80
                            27 2.80  43 2.80  29 2.80  21 2.80
  27  0.500  0.500  0.536-  28 2.80  12 2.80  62 2.80   6 2.80  57 2.80  45 2.80  25 2.80  21 2.80
                            26 2.80  42 2.80  32 2.80  40 2.80
  28  0.500  0.750  0.536-  27 2.80  11 2.80  61 2.80  21 2.80  58 2.80  62 2.80  26 2.80  22 2.80
                            57 2.80   9 2.80  55 2.80  31 2.80
  29  0.083  0.833  0.609-  30 2.80  14 2.80  60 2.80  63 2.80  43 2.80  31 2.80  48 2.80  32 2.80
                            26 2.80
  30  0.083  0.583  0.609-  29 2.80  13 2.80  59 2.80  64 2.80  60 2.80  32 2.80  15 2.80  63 2.80
                            25 2.80
  31  0.333  0.833  0.609-  16 2.80  32 2.80  26 2.80  61 2.80  29 2.80   9 2.80  14 2.80  62 2.80
                            28 2.80
  32  0.333  0.583  0.609-  15 2.80  31 2.80  25 2.80  62 2.80  30 2.80  26 2.80  45 2.80  29 2.80
                            27 2.80
  33  0.583  0.333  0.391-  34 2.80  50 2.80  40 2.80   3 2.80  35 2.80  39 2.80  20 2.80  36 2.80
                             6 2.80
  34  0.583  0.083  0.391-  33 2.80  49 2.80  39 2.80   4 2.80  36 2.80  56 2.80  51 2.80   3 2.80
                             5 2.80
  35  0.833  0.333  0.391-  52 2.80  36 2.80  38 2.80   1 2.80  37 2.80  33 2.80  50 2.80   2 2.80
                            40 2.80
  36  0.833  0.083  0.391-  51 2.80  35 2.80  37 2.80   2 2.80  54 2.80  34 2.80  17 2.80  33 2.80
                            39 2.80
  37  0.917  0.167  0.464-  54 2.80  38 2.80  36 2.80  44 2.80  39 2.80  35 2.80   7 2.80  43 2.80
                            40 2.80  24 2.80   2 2.80  42 2.80
  38  0.917  0.417  0.464-  53 2.80  37 2.80  35 2.80  59 2.80  40 2.80  52 2.80   8 2.80  44 2.80
                             7 2.80  55 2.80  57 2.80   1 2.80
  39  0.667  0.167  0.464-  40 2.80  56 2.80  42 2.80  34 2.80  37 2.80  41 2.80   5 2.80  33 2.80
                             6 2.80  54 2.80  12 2.80  36 2.80
  40  0.667  0.417  0.464-  39 2.80  55 2.80  57 2.80  33 2.80  38 2.80  42 2.80   6 2.80  50 2.80
                            37 2.80  21 2.80  35 2.80  27 2.80
  41  0.750  0.000  0.536-  58 2.80  42 2.80  56 2.80  48 2.80  11 2.80  39 2.80  43 2.80  63 2.80
                            12 2.80  60 2.80  54 2.80  46 2.80
  42  0.750  0.250  0.536-  57 2.80  41 2.80  39 2.80  47 2.80  12 2.80  40 2.80  44 2.80  48 2.80
                            43 2.80  27 2.80  45 2.80  37 2.80
  43  1.000  0.000  0.536-  44 2.80  60 2.80  14 2.80  54 2.80   9 2.80  29 2.80  41 2.80  37 2.80
                            42 2.80  26 2.80  48 2.80  24 2.80
  44  1.000  0.250  0.536-  43 2.80  59 2.80  13 2.80  37 2.80  10 2.80  14 2.80  42 2.80  38 2.80
                             9 2.80  57 2.80   7 2.80  47 2.80
  45  0.583  0.333  0.609-  46 2.80  62 2.80  12 2.80  15 2.80  27 2.80  47 2.80  32 2.80  48 2.80
                            42 2.80
  46  0.583  0.083  0.609-  45 2.80  61 2.80  11 2.80  16 2.80  12 2.80  48 2.80  63 2.80  15 2.80
                            41 2.80
  47  0.833  0.333  0.609-  64 2.80  48 2.80  42 2.80  13 2.80  45 2.80  57 2.80  62 2.80  14 2.80
                            44 2.80
  48  0.833  0.083  0.609-  63 2.80  47 2.80  41 2.80  14 2.80  46 2.80  42 2.80  29 2.80  45 2.80
                            43 2.80
  49  0.583  0.833  0.391-  50 2.80  34 2.80  56 2.80  19 2.80  51 2.80  55 2.80   4 2.80  52 2.80
                            22 2.80
  50  0.583  0.583  0.391-  49 2.80  33 2.80  55 2.80  20 2.80  52 2.80  40 2.80  35 2.80  19 2.80
                            21 2.80
  51  0.833  0.833  0.391-  36 2.80  52 2.80  54 2.80  17 2.80  53 2.80  49 2.80  34 2.80  18 2.80
                            56 2.80
  52  0.833  0.583  0.391-  35 2.80  51 2.80  53 2.80  18 2.80  38 2.80  50 2.80   1 2.80  49 2.80
                            55 2.80
  53  0.917  0.667  0.464-  38 2.80  54 2.80  52 2.80  60 2.80  55 2.80  51 2.80  23 2.80  59 2.80
                            56 2.80   8 2.80  18 2.80  58 2.80
  54  0.917  0.917  0.464-  37 2.80  53 2.80  51 2.80  43 2.80  56 2.80  36 2.80  24 2.80  60 2.80
                            23 2.80  39 2.80  41 2.80  17 2.80
  55  0.667  0.667  0.464-  56 2.80  40 2.80  58 2.80  50 2.80  53 2.80  57 2.80  21 2.80  49 2.80
                            22 2.80  38 2.80  28 2.80  52 2.80
  56  0.667  0.917  0.464-  55 2.80  39 2.80  41 2.80  49 2.80  54 2.80  58 2.80  22 2.80  34 2.80
                            53 2.80   5 2.80  51 2.80  11 2.80
  57  0.750  0.500  0.536-  42 2.80  58 2.80  40 2.80  64 2.80  27 2.80  55 2.80  59 2.80  47 2.80
                            28 2.80  44 2.80  38 2.80  62 2.80
  58  0.750  0.750  0.536-  41 2.80  57 2.80  55 2.80  63 2.80  28 2.80  56 2.80  60 2.80  64 2.80
                            59 2.80  11 2.80  61 2.80  53 2.80
  59  1.000  0.500  0.536-  60 2.80  44 2.80  30 2.80  38 2.80  25 2.80  13 2.80  57 2.80  53 2.80
                            58 2.80  10 2.80  64 2.80   8 2.80
  60  1.000  0.750  0.536-  59 2.80  43 2.80  29 2.80  53 2.80  26 2.80  30 2.80  58 2.80  54 2.80
                            25 2.80  41 2.80  23 2.80  63 2.80
  61  0.583  0.833  0.609-  62 2.80  46 2.80  28 2.80  31 2.80  11 2.80  63 2.80  16 2.80  64 2.80
                            58 2.80
  62  0.583  0.583  0.609-  61 2.80  45 2.80  27 2.80  32 2.80  28 2.80  64 2.80  47 2.80  31 2.80
                            57 2.80
  63  0.833  0.833  0.609-  48 2.80  64 2.80  58 2.80  29 2.80  61 2.80  41 2.80  46 2.80  30 2.80
                            60 2.80
  64  0.833  0.583  0.609-  47 2.80  63 2.80  57 2.80  30 2.80  62 2.80  58 2.80  13 2.80  61 2.80
                            59 2.80
 

IMPORTANT INFORMATION: All symmetrisations will be switched off!
NOSYMM: (Re-)initialisation of all symmetry stuff for point group C_1.

 
 
 KPOINTS: kpoints                                 

Automatic generation of k-mesh.
Space group operators:
 irot       det(A)        alpha          n_x          n_y          n_z        tau_x        tau_y        tau_z
    1     1.000000     0.000001     1.000000     0.000000     0.000000     0.000000     0.000000     0.000000
 
 Subroutine IBZKPT returns following result:
 ===========================================
 
 Found     10 irreducible k-points:
 
 Following reciprocal coordinates:
            Coordinates               Weight
  0.000000  0.000000  0.000000      1.000000
  0.250000 -0.000000  0.000000      2.000000
  0.500000 -0.000000  0.000000      1.000000
  0.000000  0.250000  0.000000      2.000000
  0.250000  0.250000  0.000000      2.000000
  0.500000  0.250000  0.000000      2.000000
 -0.250000  0.250000  0.000000      2.000000
  0.000000  0.500000  0.000000      1.000000
  0.250000  0.500000  0.000000      2.000000
  0.500000  0.500000  0.000000      1.000000
 
 Following cartesian coordinates:
            Coordinates               Weight
  0.000000  0.000000  0.000000      1.000000
  0.022293 -0.012871  0.000000      2.000000
  0.044586 -0.025742  0.000000      1.000000
  0.000000  0.025742  0.000000      2.000000
  0.022293  0.012871  0.000000      2.000000
  0.044586  0.000000  0.000000      2.000000
 -0.022293  0.038612  0.000000      2.000000
  0.000000  0.051483  0.000000      1.000000
  0.022293  0.038612  0.000000      2.000000
  0.044586  0.025742  0.000000      1.000000
 


--------------------------------------------------------------------------------------------------------




 Dimension of arrays:
   k-points           NKPTS =     10   k-points in BZ     NKDIM =     10   number of bands    NBANDS=    384
   number of dos      NEDOS =    301   number of ions     NIONS =     64
   non local maximal  LDIM  =      6   non local SUM 2l+1 LMDIM =     18
   total plane-waves  NPLWV = 501760
   max r-space proj   IRMAX =   1814   max aug-charges    IRDMAX=   2322
   dimension x,y,z NGX =    56 NGY =   56 NGZ =  160
   dimension x,y,z NGXF=    70 NGYF=   70 NGZF=  196
   support grid    NGXF=    70 NGYF=   70 NGZF=  196
   ions per type =              64
   NGX,Y,Z   is equivalent  to a cutoff of   8.30,  8.30,  8.46 a.u.
   NGXF,Y,Z  is equivalent  to a cutoff of  10.38, 10.38, 10.36 a.u.

 SYSTEM =  Pt                                      
 POSCAR =  Pt                                      

 Startparameter for this run:
   NWRITE =      2    write-flag & timer
   PREC   = med       normal or accurate (medium, high low for compatibility)
   ISTART =      0    job   : 0-new  1-cont  2-samecut
   ICHARG =      2    charge: 1-file 2-atom 10-const
   ISPIN  =      1    spin polarized calculation?
   LNONCOLLINEAR =      F non collinear calculations
   LSORBIT =      F    spin-orbit coupling
   INIWAV =      1    electr: 0-lowe 1-rand  2-diag
   LASPH  =      F    aspherical Exc in radial PAW
   METAGGA=      F    non-selfconsistent MetaGGA calc.

 Electronic Relaxation 1
   ENCUT  =  400.0 eV  29.40 Ry    5.42 a.u.  18.29 18.29 51.28*2*pi/ulx,y,z
   ENINI  =  400.0     initial cutoff
   ENAUG  =  359.0 eV  augmentation charge cutoff
   NELM   =    100;   NELMIN=  2; NELMDL= -5     # of ELM steps 
   EDIFF  = 0.1E-04   stopping-criterion for ELM
   LREAL  =      T    real-space projection
   NLSPLINE    = F    spline interpolate recip. space projectors
   LCOMPAT=      F    compatible to vasp.4.4
   GGA_COMPAT  = T    GGA compatible to vasp.4.4-vasp.4.6
   LMAXPAW     = -100 max onsite density
   LMAXMIX     =    2 max onsite mixed and CHGCAR
   VOSKOWN=      0    Vosko Wilk Nusair interpolation
   ROPT   =   -0.00200
 Ionic relaxation
   EDIFFG = 0.1E-03   stopping-criterion for IOM
   NSW    =    200    number of steps for IOM
   NBLOCK =      1;   KBLOCK =    200    inner block; outer block 
   IBRION =      2    ionic relax: 0-MD 1-quasi-New 2-CG
   NFREE  =      1    steps in history (QN), initial steepest desc. (CG)
   ISIF   =      1    stress and relaxation
   IWAVPR =     11    prediction:  0-non 1-charg 2-wave 3-comb
   ISYM   =      0    0-nonsym 1-usesym 2-fastsym
   LCORR  =      T    Harris-Foulkes like correction to forces

   POTIM  = 0.5000    time-step for ionic-motion
   TEIN   =    0.0    initial temperature
   TEBEG  =    0.0;   TEEND  =   0.0 temperature during run
   SMASS  =  -3.00    Nose mass-parameter (am)
   estimated Nose-frequenzy (Omega)   =  0.10E-29 period in steps =****** mass=  -0.287E-26a.u.
   SCALEE = 1.0000    scale energy and forces
   NPACO  =    256;   APACO  = 16.0  distance and # of slots for P.C.
   PSTRESS=    0.0 pullay stress

  Mass of Ions in am
   POMASS = 195.08
  Ionic Valenz
   ZVAL   =  10.00
  Atomic Wigner-Seitz radii
   RWIGS  =  -1.00
  virtual crystal weights 
   VCA    =   1.00
   NELECT =     640.0000    total number of electrons
   NUPDOWN=      -1.0000    fix difference up-down

 DOS related values:
   EMIN   =  10.00;   EMAX   =-10.00  energy-range for DOS
   EFERMI =   0.00
   ISMEAR =     1;   SIGMA  =   0.10  broadening in eV -4-tet -1-fermi 0-gaus

 Electronic relaxation 2 (details)
   IALGO  =     68    algorithm
   LDIAG  =      T    sub-space diagonalisation (order eigenvalues)
   LSUBROT=      F    optimize rotation matrix (better conditioning)
   TURBO    =      0    0=normal 1=particle mesh
   IRESTART =      0    0=no restart 2=restart with 2 vectors
   NREBOOT  =      0    no. of reboots
   NMIN     =      0    reboot dimension
   EREF     =   0.00    reference energy to select bands
   IMIX   =      4    mixing-type and parameters
     AMIX     =   0.40;   BMIX     =  1.00
     AMIX_MAG =   1.60;   BMIX_MAG =  1.00
     AMIN     =   0.10
     WC   =   100.;   INIMIX=   1;  MIXPRE=   1;  MAXMIX= -45

 Intra band minimization:
   WEIMIN = 0.0010     energy-eigenvalue tresh-hold
   EBREAK =  0.65E-08  absolut break condition
   DEPER  =   0.30     relativ break condition  

   TIME   =   0.40     timestep for ELM

  volume/ion in A,a.u.               =      53.51       361.12
  Fermi-wavevector in a.u.,A,eV,Ry     =   0.935955  1.768699 11.918864  0.876012
  Thomas-Fermi vector in A             =   2.062915
 
 Write flags
   LWAVE        =      F    write WAVECAR
   LDOWNSAMPLE  =      F    k-point downsampling of WAVECAR
   LCHARG       =      F    write CHGCAR
   LVTOT        =      F    write LOCPOT, total local potential
   LVHAR        =      F    write LOCPOT, Hartree potential only
   LELF         =      F    write electronic localiz. function (ELF)
   LORBIT       =      0    0 simple, 1 ext, 2 COOP (PROOUT), +10 PAW based schemes


 Dipole corrections
   LMONO  =      F    monopole corrections only (constant potential shift)
   LDIPOL =      F    correct potential (dipole corrections)
   IDIPOL =      0    1-x, 2-y, 3-z, 4-all directions 
   EPSILON=  1.0000000 bulk dielectric constant

 Exchange correlation treatment:
   GGA     =    --    GGA type
   LEXCH   =     8    internal setting for exchange type
   VOSKOWN=      0    Vosko Wilk Nusair interpolation
   LHFCALC =     F    Hartree Fock is set to
   LHFONE  =     F    Hartree Fock one center treatment
   AEXX    =    0.0000 exact exchange contribution

 Linear response parameters
   LEPSILON=     F    determine dielectric tensor
   LRPA    =     F    only Hartree local field effects (RPA)
   LNABLA  =     F    use nabla operator in PAW spheres
   LVEL    =     F    velocity operator in full k-point grid
   LINTERFAST=   F  fast interpolation
   KINTER  =     0    interpolate to denser k-point grid
   CSHIFT  =0.1000    complex shift for real part using Kramers Kronig
   OMEGAMAX=  -1.0    maximum frequency
   DEG_THRESHOLD= 0.2000000E-02 threshold for treating states as degnerate
   RTIME   =   -0.100 relaxation time in fs
  (WPLASMAI=    0.000 imaginary part of plasma frequency in eV, 0.658/RTIME)
   DFIELD  = 0.0000000 0.0000000 0.0000000 field for delta impulse in time
 
 Orbital magnetization related:
   ORBITALMAG=     F  switch on orbital magnetization
   LCHIMAG   =     F  perturbation theory with respect to B field
   DQ        =  0.001000  dq finite difference perturbation B field
   LLRAUG    =     F  two centre corrections for induced B field



--------------------------------------------------------------------------------------------------------


 conjugate gradient relaxation of ions
   using selective dynamics as specified on POSCAR
   WARNING: If single coordinates had been selected the selection of coordinates
            is made according to the corresponding   d i r e c t   coordinates!
            Don't support selection of single cartesian coordinates -- sorry ...
  !
 charge density and potential will be updated during run
 non-spin polarized calculation
 RMM-DIIS sequential band-by-band and
  variant of blocked Davidson during initial phase
 perform sub-space diagonalisation
    before iterative eigenvector-optimisation
 modified Broyden-mixing scheme, WC =      100.0
 initial mixing is a Kerker type mixing with AMIX =  0.4000 and BMIX =      1.0000
 Hartree-type preconditioning will be used
 using additional bands           64
 real space projection scheme for non local part
 use partial core corrections
 calculate Harris-corrections to forces 
   (improved forces if not selfconsistent)
 use gradient corrections 
 use of overlap-Matrix (Vanderbilt PP)
 Methfessel and Paxton  Order N= 1 SIGMA  =   0.10


--------------------------------------------------------------------------------------------------------


  energy-cutoff  :      400.00
  volume of cell :     3424.83
      direct lattice vectors                 reciprocal lattice vectors
    11.214359184  0.000000000  0.000000000     0.089171390 -0.051483119  0.000000000
     5.607178664  9.711919634  0.000000000     0.000000000  0.102966256  0.000000000
     0.000000000  0.000000000 31.445607950     0.000000000  0.000000000  0.031800943

  length of vectors
    11.214359184 11.214358455 31.445607950     0.102966249  0.102966256  0.031800943


 
 k-points in units of 2pi/SCALE and weight: kpoints                                 
   0.00000000  0.00000000  0.00000000       0.062
   0.02229285 -0.01287078  0.00000000       0.125
   0.04458570 -0.02574156  0.00000000       0.062
   0.00000000  0.02574156  0.00000000       0.125
   0.02229285  0.01287078  0.00000000       0.125
   0.04458570  0.00000000  0.00000000       0.125
  -0.02229285  0.03861234  0.00000000       0.125
   0.00000000  0.05148313  0.00000000       0.062
   0.02229285  0.03861235  0.00000000       0.125
   0.04458570  0.02574157  0.00000000       0.062
 
 k-points in reciprocal lattice and weights: kpoints                                 
   0.00000000  0.00000000  0.00000000       0.062
   0.25000000 -0.00000000  0.00000000       0.125
   0.50000000 -0.00000000  0.00000000       0.062
   0.00000000  0.25000000  0.00000000       0.125
   0.25000000  0.25000000  0.00000000       0.125
   0.50000000  0.25000000  0.00000000       0.125
  -0.25000000  0.25000000  0.00000000       0.125
   0.00000000  0.50000000  0.00000000       0.062
   0.25000000  0.50000000  0.00000000       0.125
   0.50000000  0.50000000  0.00000000       0.062
 
 position of ions in fractional coordinates (direct lattice) 
   0.08333331  0.33333334  0.39080566
   0.08333331  0.08333334  0.39080566
   0.33333331  0.33333334  0.39080566
   0.33333331  0.08333334  0.39080566
   0.41666661  0.16666668  0.46360189
   0.41666661  0.41666668  0.46360189
   0.16666661  0.16666669  0.46360189
   0.16666661  0.41666668  0.46360189
   0.24999992  0.00000003  0.53639811
   0.24999992  0.25000003  0.53639811
   0.49999992  0.00000003  0.53639811
   0.49999992  0.25000002  0.53639811
   0.08333322  0.33333337  0.60919434
   0.08333322  0.08333337  0.60919434
   0.33333322  0.33333337  0.60919434
   0.33333322  0.08333337  0.60919434
   0.08333331  0.83333334  0.39080566
   0.08333331  0.58333334  0.39080566
   0.33333331  0.83333334  0.39080566
   0.33333331  0.58333334  0.39080566
   0.41666661  0.66666668  0.46360189
   0.41666661  0.91666668  0.46360189
   0.16666661  0.66666669  0.46360189
   0.16666661  0.91666668  0.46360189
   0.24999992  0.50000003  0.53639811
   0.24999992  0.75000003  0.53639811
   0.49999992  0.50000003  0.53639811
   0.49999992  0.75000002  0.53639811
   0.08333322  0.83333337  0.60919434
   0.08333322  0.58333337  0.60919434
   0.33333322  0.83333337  0.60919434
   0.33333322  0.58333337  0.60919434
   0.58333331  0.33333334  0.39080566
   0.58333331  0.08333334  0.39080566
   0.83333331  0.33333334  0.39080566
   0.83333331  0.08333334  0.39080566
   0.91666661  0.16666668  0.46360189
   0.91666661  0.41666668  0.46360189
   0.66666661  0.16666669  0.46360189
   0.66666661  0.41666668  0.46360189
   0.74999992  0.00000003  0.53639811
   0.74999992  0.25000003  0.53639811
   0.99999992  0.00000003  0.53639811
   0.99999992  0.25000002  0.53639811
   0.58333322  0.33333337  0.60919434
   0.58333322  0.08333337  0.60919434
   0.83333322  0.33333337  0.60919434
   0.83333322  0.08333337  0.60919434
   0.58333331  0.83333334  0.39080566
   0.58333331  0.58333334  0.39080566
   0.83333331  0.83333334  0.39080566
   0.83333331  0.58333334  0.39080566
   0.91666661  0.66666668  0.46360189
   0.91666661  0.91666668  0.46360189
   0.66666661  0.66666669  0.46360189
   0.66666661  0.91666668  0.46360189
   0.74999992  0.50000003  0.53639811
   0.74999992  0.75000003  0.53639811
   0.99999992  0.50000003  0.53639811
   0.99999992  0.75000002  0.53639811
   0.58333322  0.83333337  0.60919434
   0.58333322  0.58333337  0.60919434
   0.83333322  0.83333337  0.60919434
   0.83333322  0.58333337  0.60919434
 
 position of ions in cartesian coordinates  (Angst):
   2.80358922  3.23730662 12.28912157
   1.40179455  0.80932672 12.28912158
   5.60717903  3.23730665 12.28912160
   4.20538436  0.80932671 12.28912159
   5.60717891  1.61865343 14.57824317
   7.00897357  4.04663335 14.57824318
   2.80358912  1.61865346 14.57824319
   4.20538379  4.04663334 14.57824318
   2.80358900  0.00000024 16.86736476
   4.20538367  2.42798016 16.86736477
   5.60717881  0.00000027 16.86736478
   7.00897347  2.42798015 16.86736477
   2.80358843  3.23730687 19.15648635
   1.40179377  0.80932697 19.15648636
   5.60717824  3.23730690 19.15648637
   4.20538357  0.80932696 19.15648637
   5.60717855  8.09326644 12.28912157
   4.20538389  5.66528654 12.28912158
   8.41076836  8.09326646 12.28912160
   7.00897369  5.66528652 12.28912159
   8.41076824  6.47461325 14.57824317
   9.81256291  8.90259317 14.57824318
   5.60717845  6.47461328 14.57824319
   7.00897312  8.90259315 14.57824318
   5.60717834  4.85596006 16.86736476
   7.00897300  7.28393998 16.86736477
   8.41076814  4.85596009 16.86736478
   9.81256281  7.28393997 16.86736477
   5.60717776  8.09326669 19.15648635
   4.20538310  5.66528679 19.15648636
   8.41076757  8.09326672 19.15648637
   7.00897290  5.66528678 19.15648637
   8.41076881  3.23730662 12.28912157
   7.00897415  0.80932672 12.28912158
  11.21435862  3.23730665 12.28912160
   9.81256395  0.80932671 12.28912159
  11.21435850  1.61865343 14.57824317
  12.61615317  4.04663335 14.57824318
   8.41076871  1.61865346 14.57824319
   9.81256338  4.04663334 14.57824318
   8.41076860  0.00000024 16.86736476
   9.81256326  2.42798016 16.86736477
  11.21435840  0.00000027 16.86736478
  12.61615307  2.42798015 16.86736477
   8.41076802  3.23730687 19.15648635
   7.00897336  0.80932697 19.15648636
  11.21435783  3.23730690 19.15648637
   9.81256316  0.80932696 19.15648637
  11.21435814  8.09326644 12.28912157
   9.81256348  5.66528654 12.28912158
  14.01794795  8.09326646 12.28912160
  12.61615328  5.66528652 12.28912159
  14.01794783  6.47461325 14.57824317
  15.41974250  8.90259317 14.57824318
  11.21435805  6.47461328 14.57824319
  12.61615271  8.90259315 14.57824318
  11.21435793  4.85596006 16.86736476
  12.61615260  7.28393998 16.86736477
  14.01794774  4.85596009 16.86736478
  15.41974240  7.28393997 16.86736477
  11.21435736  8.09326669 19.15648635
   9.81256269  5.66528679 19.15648636
  14.01794716  8.09326672 19.15648637
  12.61615249  5.66528678 19.15648637
 


--------------------------------------------------------------------------------------------------------


 k-point  1 :   0.0000 0.0000 0.0000  plane waves:   62299
 k-point  2 :   0.2500-0.0000 0.0000  plane waves:   62176
 k-point  3 :   0.5000-0.0000 0.0000  plane waves:   62174
 k-point  4 :   0.0000 0.2500 0.0000  plane waves:   62176
 k-point  5 :   0.2500 0.2500 0.0000  plane waves:   62176
 k-point  6 :   0.5000 0.2500 0.0000  plane waves:   62212
 k-point  7 :  -0.2500 0.2500 0.0000  plane waves:   62212
 k-point  8 :   0.0000 0.5000 0.0000  plane waves:   62174
 k-point  9 :   0.2500 0.5000 0.0000  plane waves:   62212
 k-point 10 :   0.5000 0.5000 0.0000  plane waves:   62174

 maximum and minimum number of plane-waves per node :      1975     1920

 maximum number of plane-waves:     62299
 maximum index in each direction: 
   IXMAX=   18   IYMAX=   18   IZMAX=   51
   IXMIN=  -18   IYMIN=  -18   IZMIN=  -51


 real space projection operators:
  total allocation   :      15333.75 KBytes
  max/ min on nodes  :        582.75        248.62


 parallel 3D FFT for wavefunctions:
    minimum data exchange during FFTs selected (reduces bandwidth)
 parallel 3D FFT for charge:
    minimum data exchange during FFTs selected (reduces bandwidth)


 total amount of memory used by VASP MPI-rank0    97096. kBytes
=======================================================================

   base      :      30000. kBytes
   nonlr-proj:       2622. kBytes
   fftplans  :       1451. kBytes
   grid      :       2044. kBytes
   one-center:         31. kBytes
   wavefun   :      60948. kBytes
 
     INWAV:  cpu time    0.0000: real time    0.0002
 Broyden mixing: mesh for mixing (old mesh)
   NGX = 37   NGY = 37   NGZ =103
  (NGX  = 70   NGY  = 70   NGZ  =196)
  gives a total of 141007 points

 initial charge density was supplied:
 charge density of overlapping atoms calculated
 number of electron     640.0000000 magnetization 
 keeping initial charge density in first step


--------------------------------------------------------------------------------------------------------


 Maximum index for non-local projection operator          156
 Maximum index for augmentation-charges          276 (set IRDMAX)


--------------------------------------------------------------------------------------------------------


 First call to EWALD:  gamma=   0.118
 Maximum number of real-space cells 4x 4x 2
 Maximum number of reciprocal cells 2x 2x 5

    FEWALD:  cpu time    0.0024: real time    0.0025


--------------------------------------- Iteration      1(   1)  ---------------------------------------


    POTLOK:  cpu time    0.0153: real time    0.0292
    SETDIJ:  cpu time    0.0044: real time    0.0051
     EDDAV:  cpu time   10.2943: real time   10.3265
       DOS:  cpu time    0.0060: real time    0.0060
    --------------------------------------------
      LOOP:  cpu time   10.3199: real time   10.3668

 eigenvalue-minimisations  :  7696
 total energy-change (2. order) : 0.4186831E+04  (-0.2323106E+05)
 number of electron     640.0000000 magnetization 
 augmentation part      640.0000000 magnetization 

 Free energy of the ion-electron system (eV)
  ---------------------------------------------------
  alpha Z        PSCENC =      1136.86868210
  Ewald energy   TEWEN  =    406265.19981054
  -Hartree energ DENC   =   -454309.11080589
  -exchange      EXHF   =         0.00000000
  -V(xc)+E(xc)   XCENC  =       215.19757225
  PAW double counting   =     44551.90626740   -42741.77887881
  entropy T*S    EENTRO =        -0.00334238
  eigenvalues    EBANDS =      2405.38687029
  atomic energy  EATOM  =     46663.16491575
  Solvation  Ediel_sol  =         0.00000000
  ---------------------------------------------------
  free energy    TOTEN  =      4186.83109124 eV

  energy without entropy =     4186.83443362  energy(sigma->0) =     4186.83220537


--------------------------------------------------------------------------------------------------------




--------------------------------------- Iteration      1(   2)  ---------------------------------------


     EDDAV:  cpu time   12.3288: real time   12.3641
       DOS:  cpu time    0.0074: real time    0.0074
    --------------------------------------------
      LOOP:  cpu time   12.3362: real time   12.3715

 eigenvalue-minimisations  :  9688
 total energy-change (2. order) :-0.4199714E+04  (-0.3855799E+04)
 number of electron     640.0000000 magnetization 
 augmentation part      640.0000000 magnetization 

 Free energy of the ion-electron system (eV)
  ---------------------------------------------------
  alpha Z        PSCENC =      1136.86868210
  Ewald energy   TEWEN  =    406265.19981054
  -Hartree energ DENC   =   -454309.11080589
  -exchange      EXHF   =         0.00000000
  -V(xc)+E(xc)   XCENC  =       215.19757225
  PAW double counting   =     44551.90626740   -42741.77887881
  entropy T*S    EENTRO =         0.00005408
  eigenvalues    EBANDS =     -1794.33013431
  atomic energy  EATOM  =     46663.16491575
  Solvation  Ediel_sol  =         0.00000000
  ---------------------------------------------------
  free energy    TOTEN  =       -12.88251690 eV

  energy without entropy =      -12.88257098  energy(sigma->0) =      -12.88253492


--------------------------------------------------------------------------------------------------------




--------------------------------------- Iteration      1(   3)  ---------------------------------------


     EDDAV:  cpu time   11.5442: real time   11.5797
       DOS:  cpu time    0.0070: real time    0.0070
    --------------------------------------------
      LOOP:  cpu time   11.5512: real time   11.5868

 eigenvalue-minimisations  :  8928
 total energy-change (2. order) :-0.3630024E+03  (-0.3315290E+03)
 number of electron     640.0000000 magnetization 
 augmentation part      640.0000000 magnetization 

 Free energy of the ion-electron system (eV)
  ---------------------------------------------------
  alpha Z        PSCENC =      1136.86868210
  Ewald energy   TEWEN  =    406265.19981054
  -Hartree energ DENC   =   -454309.11080589
  -exchange      EXHF   =         0.00000000
  -V(xc)+E(xc)   XCENC  =       215.19757225
  PAW double counting   =     44551.90626740   -42741.77887881
  entropy T*S    EENTRO =        -0.04446970
  eigenvalues    EBANDS =     -2157.28796126
  atomic energy  EATOM  =     46663.16491575
  Solvation  Ediel_sol  =         0.00000000
  ---------------------------------------------------
  free energy    TOTEN  =      -375.88486763 eV

  energy without entropy =     -375.84039793  energy(sigma->0) =     -375.87004440


--------------------------------------------------------------------------------------------------------




--------------------------------------- Iteration      1(   4)  ---------------------------------------


     EDDAV:  cpu time   13.1587: real time   13.1976
       DOS:  cpu time    0.0075: real time    0.0076
    --------------------------------------------
      LOOP:  cpu time   13.1663: real time   13.2052

 eigenvalue-minimisations  : 10496
 total energy-change (2. order) :-0.1849315E+02  (-0.1685704E+02)
 number of electron     640.0000000 magnetization 
 augmentation part      640.0000000 magnetization 

 Free energy of the ion-electron system (eV)
  ---------------------------------------------------
  alpha Z        PSCENC =      1136.86868210
  Ewald energy   TEWEN  =    406265.19981054
  -Hartree energ DENC   =   -454309.11080589
  -exchange      EXHF   =         0.00000000
  -V(xc)+E(xc)   XCENC  =       215.19757225
  PAW double counting   =     44551.90626740   -42741.77887881
  entropy T*S    EENTRO =        -0.08417500
  eigenvalues    EBANDS =     -2175.74140693
  atomic energy  EATOM  =     46663.16491575
  Solvation  Ediel_sol  =         0.00000000
  ---------------------------------------------------
  free energy    TOTEN  =      -394.37801860 eV

  energy without entropy =     -394.29384360  energy(sigma->0) =     -394.34996027


--------------------------------------------------------------------------------------------------------




--------------------------------------- Iteration      1(   5)  ---------------------------------------


     EDDAV:  cpu time   12.1492: real time   12.1867
       DOS:  cpu time    0.0073: real time    0.0073
    CHARGE:  cpu time    0.3128: real time    0.3137
    MIXING:  cpu time    0.0018: real time    0.0019
    --------------------------------------------
      LOOP:  cpu time   12.4712: real time   12.5096

 eigenvalue-minimisations  :  9520
 total energy-change (2. order) :-0.5236350E+00  (-0.5143819E+00)
 number of electron     640.0000077 magnetization 
 augmentation part      186.3387048 magnetization 

 Broyden mixing:
  rms(total) = 0.81142E+01    rms(broyden)= 0.81141E+01
  rms(prec ) = 0.81750E+01
  weight for this iteration     100.00

 Free energy of the ion-electron system (eV)
  ---------------------------------------------------
  alpha Z        PSCENC =      1136.86868210
  Ewald energy   TEWEN  =    406265.19981054
  -Hartree energ DENC   =   -454309.11080589
  -exchange      EXHF   =         0.00000000
  -V(xc)+E(xc)   XCENC  =       215.19757225
  PAW double counting   =     44551.90626740   -42741.77887881
  entropy T*S    EENTRO =        -0.08629253
  eigenvalues    EBANDS =     -2176.26292436
  atomic energy  EATOM  =     46663.16491575
  Solvation  Ediel_sol  =         0.00000000
  ---------------------------------------------------
  free energy    TOTEN  =      -394.90165356 eV

  energy without entropy =     -394.81536103  energy(sigma->0) =     -394.87288939


--------------------------------------------------------------------------------------------------------




--------------------------------------- Iteration      1(   6)  ---------------------------------------


    POTLOK:  cpu time    0.0096: real time    0.0112
    SETDIJ:  cpu time    0.0044: real time    0.0057
    EDDIAG:  cpu time    1.4419: real time    1.4457
  RMM-DIIS:  cpu time    4.5710: real time    4.5832
    ORTHCH:  cpu time    0.4790: real time    0.4802
       DOS:  cpu time    0.0073: real time    0.0073
    CHARGE:  cpu time    0.3161: real time    0.3169
    MIXING:  cpu time    0.0007: real time    0.0008
    --------------------------------------------
      LOOP:  cpu time    6.8299: real time    6.8510

 eigenvalue-minimisations  :  7718
 total energy-change (2. order) : 0.1268878E+02  (-0.6709597E+01)
 number of electron     639.9999776 magnetization 
 augmentation part      196.6472122 magnetization 

 Broyden mixing:
  rms(total) = 0.59359E+01    rms(broyden)= 0.59358E+01
  rms(prec ) = 0.61230E+01
  weight for this iteration     100.00

 eigenvalues of (default mixing * dielectric matrix)
  average eigenvalue GAMMA=   1.2690
  1.2690

 Free energy of the ion-electron system (eV)
  ---------------------------------------------------
  alpha Z        PSCENC =      1136.86868210
  Ewald energy   TEWEN  =    406265.19981054
  -Hartree energ DENC   =   -453509.68704375
  -exchange      EXHF   =         0.00000000
  -V(xc)+E(xc)   XCENC  =       198.32947428
  PAW double counting   =     48972.88229573   -47255.24359297
  entropy T*S    EENTRO =        -0.04068451
  eigenvalues    EBANDS =     -2853.68673403
  atomic energy  EATOM  =     46663.16491575
  Solvation  Ediel_sol  =         0.00000000
  ---------------------------------------------------
  free energy    TOTEN  =      -382.21287685 eV

  energy without entropy =     -382.17219234  energy(sigma->0) =     -382.19931535


--------------------------------------------------------------------------------------------------------




--------------------------------------- Iteration      1(   7)  ---------------------------------------


    POTLOK:  cpu time    0.0113: real time    0.0134
    SETDIJ:  cpu time    0.0038: real time    0.0053
    EDDIAG:  cpu time    1.4640: real time    1.4692
  RMM-DIIS:  cpu time    4.5734: real time    4.5856
    ORTHCH:  cpu time    0.4798: real time    0.4810
       DOS:  cpu time    0.0072: real time    0.0072
    CHARGE:  cpu time    0.3086: real time    0.3094
    MIXING:  cpu time    0.0007: real time    0.0007
    --------------------------------------------
      LOOP:  cpu time    6.8487: real time    6.8718

 eigenvalue-minimisations  :  7746
 total energy-change (2. order) :-0.8808072E+02  (-0.1649329E+02)
 number of electron     640.0000247 magnetization 
 augmentation part      193.2714395 magnetization 

 Broyden mixing:
  rms(total) = 0.79753E+01    rms(broyden)= 0.79751E+01
  rms(prec ) = 0.88358E+01
  weight for this iteration     100.00

 eigenvalues of (default mixing * dielectric matrix)
  average eigenvalue GAMMA=   1.2283
  2.1822  0.2743

 Free energy of the ion-electron system (eV)
  ---------------------------------------------------
  alpha Z        PSCENC =      1136.86868210
  Ewald energy   TEWEN  =    406265.19981054
  -Hartree energ DENC   =   -454221.66367109
  -exchange      EXHF   =         0.00000000
  -V(xc)+E(xc)   XCENC  =       192.94777343
  PAW double counting   =     52298.21860813   -50619.91161021
  entropy T*S    EENTRO =        -0.01613410
  eigenvalues    EBANDS =     -2185.10197328
  atomic energy  EATOM  =     46663.16491575
  Solvation  Ediel_sol  =         0.00000000
  ---------------------------------------------------
  free energy    TOTEN  =      -470.29359873 eV

  energy without entropy =     -470.27746463  energy(sigma->0) =     -470.28822070


--------------------------------------------------------------------------------------------------------




--------------------------------------- Iteration      1(   8)  ---------------------------------------


    POTLOK:  cpu time    0.0095: real time    0.0109
    SETDIJ:  cpu time    0.0055: real time    0.0057
    EDDIAG:  cpu time    1.4652: real time    1.4690
  RMM-DIIS:  cpu time    4.5673: real time    4.5793
    ORTHCH:  cpu time    0.4837: real time    0.4849
       DOS:  cpu time    0.0075: real time    0.0075
    CHARGE:  cpu time    0.3052: real time    0.3059
    MIXING:  cpu time    0.0004: real time    0.0004
    --------------------------------------------
      LOOP:  cpu time    6.8443: real time    6.8636

 eigenvalue-minimisations  :  7731
 total energy-change (2. order) : 0.9426381E+02  (-0.4457280E+01)
 number of electron     640.0000061 magnetization 
 augmentation part      200.4067974 magnetization 

 Broyden mixing:
  rms(total) = 0.25060E+01    rms(broyden)= 0.25059E+01
  rms(prec ) = 0.27881E+01
  weight for this iteration     100.00

 eigenvalues of (default mixing * dielectric matrix)
  average eigenvalue GAMMA=   1.1129
  1.7053  1.3153  0.3180

 Free energy of the ion-electron system (eV)
  ---------------------------------------------------
  alpha Z        PSCENC =      1136.86868210
  Ewald energy   TEWEN  =    406265.19981054
  -Hartree energ DENC   =   -453579.04890543
  -exchange      EXHF   =         0.00000000
  -V(xc)+E(xc)   XCENC  =       188.69405316
  PAW double counting   =     55762.09127526   -54132.43039993
  entropy T*S    EENTRO =        -0.03591117
  eigenvalues    EBANDS =     -2680.53330686
  atomic energy  EATOM  =     46663.16491575
  Solvation  Ediel_sol  =         0.00000000
  ---------------------------------------------------
  free energy    TOTEN  =      -376.02978659 eV

  energy without entropy =     -375.99387541  energy(sigma->0) =     -376.01781620


--------------------------------------------------------------------------------------------------------




--------------------------------------- Iteration      1(   9)  ---------------------------------------


    POTLOK:  cpu time    0.0094: real time    0.0096
    SETDIJ:  cpu time    0.0022: real time    0.0022
    EDDIAG:  cpu time    1.4625: real time    1.4660
  RMM-DIIS:  cpu time    4.5557: real time    4.5665
    ORTHCH:  cpu time    0.4843: real time    0.4855
       DOS:  cpu time    0.0075: real time    0.0075
    CHARGE:  cpu time    0.3050: real time    0.3058
    MIXING:  cpu time    0.0005: real time    0.0005
    --------------------------------------------
      LOOP:  cpu time    6.8271: real time    6.8436

 eigenvalue-minimisations  :  7742
 total energy-change (2. order) : 0.8649051E+00  (-0.2588597E+01)
 number of electron     639.9999889 magnetization 
 augmentation part      198.9601332 magnetization 

 Broyden mixing:
  rms(total) = 0.22987E+01    rms(broyden)= 0.22985E+01
  rms(prec ) = 0.25162E+01
  weight for this iteration     100.00

 eigenvalues of (default mixing * dielectric matrix)
  average eigenvalue GAMMA=   1.0761
  2.2167  1.1917  0.3472  0.5490

 Free energy of the ion-electron system (eV)
  ---------------------------------------------------
  alpha Z        PSCENC =      1136.86868210
  Ewald energy   TEWEN  =    406265.19981054
  -Hartree energ DENC   =   -453546.86997667
  -exchange      EXHF   =         0.00000000
  -V(xc)+E(xc)   XCENC  =       192.94906518
  PAW double counting   =     55523.44055201   -53878.31289710
  entropy T*S    EENTRO =         0.01122989
  eigenvalues    EBANDS =     -2731.61626323
  atomic energy  EATOM  =     46663.16491575
  Solvation  Ediel_sol  =         0.00000000
  ---------------------------------------------------
  free energy    TOTEN  =      -375.16488154 eV

  energy without entropy =     -375.17611143  energy(sigma->0) =     -375.16862483


--------------------------------------------------------------------------------------------------------




--------------------------------------- Iteration      1(  10)  ---------------------------------------


    POTLOK:  cpu time    0.0093: real time    0.0135
    SETDIJ:  cpu time    0.0022: real time    0.0022
    EDDIAG:  cpu time    1.4575: real time    1.4609
  RMM-DIIS:  cpu time    4.6019: real time    4.6129
    ORTHCH:  cpu time    0.4845: real time    0.4857
       DOS:  cpu time    0.0071: real time    0.0071
    CHARGE:  cpu time    0.3075: real time    0.3082
    MIXING:  cpu time    0.0006: real time    0.0006
    --------------------------------------------
      LOOP:  cpu time    6.8706: real time    6.8911

 eigenvalue-minimisations  :  7793
 total energy-change (2. order) :-0.9753584E-01  (-0.1761722E+00)
 number of electron     639.9999924 magnetization 
 augmentation part      198.9443404 magnetization 

 Broyden mixing:
  rms(total) = 0.24093E+01    rms(broyden)= 0.24092E+01
  rms(prec ) = 0.31897E+01
  weight for this iteration     100.00

 eigenvalues of (default mixing * dielectric matrix)
  average eigenvalue GAMMA=   0.9154
  2.3432  1.1663  0.6419  0.3432  0.0825

 Free energy of the ion-electron system (eV)
  ---------------------------------------------------
  alpha Z        PSCENC =      1136.86868210
  Ewald energy   TEWEN  =    406265.19981054
  -Hartree energ DENC   =   -453574.37390920
  -exchange      EXHF   =         0.00000000
  -V(xc)+E(xc)   XCENC  =       192.20097990
  PAW double counting   =     56147.59091837   -54510.07795500
  entropy T*S    EENTRO =         0.03087744
  eigenvalues    EBANDS =     -2695.86673727
  atomic energy  EATOM  =     46663.16491575
  Solvation  Ediel_sol  =         0.00000000
  ---------------------------------------------------
  free energy    TOTEN  =      -375.26241738 eV

  energy without entropy =     -375.29329482  energy(sigma->0) =     -375.27270986


--------------------------------------------------------------------------------------------------------




--------------------------------------- Iteration      1(  11)  ---------------------------------------


    POTLOK:  cpu time    0.0093: real time    0.0095
    SETDIJ:  cpu time    0.0022: real time    0.0022
    EDDIAG:  cpu time    1.4617: real time    1.4652
  RMM-DIIS:  cpu time    4.5964: real time    4.6074
    ORTHCH:  cpu time    0.4793: real time    0.4804
       DOS:  cpu time    0.0075: real time    0.0076
    CHARGE:  cpu time    0.3123: real time    0.3130
    MIXING:  cpu time    0.0006: real time    0.0006
    --------------------------------------------
      LOOP:  cpu time    6.8693: real time    6.8858

 eigenvalue-minimisations  :  7758
 total energy-change (2. order) : 0.4619097E+01  (-0.8024878E-01)
 number of electron     639.9999960 magnetization 
 augmentation part      199.0012140 magnetization 

 Broyden mixing:
  rms(total) = 0.70308E+00    rms(broyden)= 0.70294E+00
  rms(prec ) = 0.80181E+00
  weight for this iteration     100.00

 eigenvalues of (default mixing * dielectric matrix)
  average eigenvalue GAMMA=   0.8164
  2.3632  1.1061  0.7188  0.3534  0.2895  0.0672

 Free energy of the ion-electron system (eV)
  ---------------------------------------------------
  alpha Z        PSCENC =      1136.86868210
  Ewald energy   TEWEN  =    406265.19981054
  -Hartree energ DENC   =   -453587.11802731
  -exchange      EXHF   =         0.00000000
  -V(xc)+E(xc)   XCENC  =       191.94891110
  PAW double counting   =     56354.41832589   -54719.49146436
  entropy T*S    EENTRO =        -0.05167572
  eigenvalues    EBANDS =     -2675.58279835
  atomic energy  EATOM  =     46663.16491575
  Solvation  Ediel_sol  =         0.00000000
  ---------------------------------------------------
  free energy    TOTEN  =      -370.64332037 eV

  energy without entropy =     -370.59164465  energy(sigma->0) =     -370.62609513


--------------------------------------------------------------------------------------------------------




--------------------------------------- Iteration      1(  12)  ---------------------------------------


    POTLOK:  cpu time    0.0097: real time    0.0099
    SETDIJ:  cpu time    0.0022: real time    0.0022
    EDDIAG:  cpu time    1.4561: real time    1.4595
  RMM-DIIS:  cpu time    4.6294: real time    4.6404
    ORTHCH:  cpu time    0.4790: real time    0.4801
       DOS:  cpu time    0.0073: real time    0.0073
    CHARGE:  cpu time    0.3118: real time    0.3125
    MIXING:  cpu time    0.0006: real time    0.0006
    --------------------------------------------
      LOOP:  cpu time    6.8961: real time    6.9126

 eigenvalue-minimisations  :  7818
 total energy-change (2. order) : 0.2257654E+00  (-0.2014649E-01)
 number of electron     639.9999969 magnetization 
 augmentation part      199.0280524 magnetization 

 Broyden mixing:
  rms(total) = 0.44135E+00    rms(broyden)= 0.44133E+00
  rms(prec ) = 0.47245E+00
  weight for this iteration     100.00

 eigenvalues of (default mixing * dielectric matrix)
  average eigenvalue GAMMA=   0.8125
  2.3445  1.1225  1.1225  0.5176  0.3404  0.1710  0.0688

 Free energy of the ion-electron system (eV)
  ---------------------------------------------------
  alpha Z        PSCENC =      1136.86868210
  Ewald energy   TEWEN  =    406265.19981054
  -Hartree energ DENC   =   -453595.07240231
  -exchange      EXHF   =         0.00000000
  -V(xc)+E(xc)   XCENC  =       191.83947910
  PAW double counting   =     56368.38023361   -54733.92704306
  entropy T*S    EENTRO =        -0.04009888
  eigenvalues    EBANDS =     -2666.83113185
  atomic energy  EATOM  =     46663.16491575
  Solvation  Ediel_sol  =         0.00000000
  ---------------------------------------------------
  free energy    TOTEN  =      -370.41755501 eV

  energy without entropy =     -370.37745613  energy(sigma->0) =     -370.40418872


--------------------------------------------------------------------------------------------------------




--------------------------------------- Iteration      1(  13)  ---------------------------------------


    POTLOK:  cpu time    0.0093: real time    0.0111
    SETDIJ:  cpu time    0.0022: real time    0.0022
    EDDIAG:  cpu time    1.4559: real time    1.4594
  RMM-DIIS:  cpu time    4.5978: real time    4.6087
    ORTHCH:  cpu time    0.4794: real time    0.4806
       DOS:  cpu time    0.0076: real time    0.0076
    CHARGE:  cpu time    0.3069: real time    0.3076
    MIXING:  cpu time    0.0007: real time    0.0007
    --------------------------------------------
      LOOP:  cpu time    6.8597: real time    6.8779

 eigenvalue-minimisations  :  7782
 total energy-change (2. order) :-0.1279403E-01  (-0.1841486E-01)
 number of electron     639.9999984 magnetization 
 augmentation part      199.0330095 magnetization 

 Broyden mixing:
  rms(total) = 0.35224E+00    rms(broyden)= 0.35222E+00
  rms(prec ) = 0.38403E+00
  weight for this iteration     100.00

 eigenvalues of (default mixing * dielectric matrix)
  average eigenvalue GAMMA=   0.8731
  2.2456  1.5583  1.5583  0.5303  0.5303  0.3346  0.1583  0.0686

 Free energy of the ion-electron system (eV)
  ---------------------------------------------------
  alpha Z        PSCENC =      1136.86868210
  Ewald energy   TEWEN  =    406265.19981054
  -Hartree energ DENC   =   -453608.69280693
  -exchange      EXHF   =         0.00000000
  -V(xc)+E(xc)   XCENC  =       191.76555727
  PAW double counting   =     56315.30785600   -54680.68217362
  entropy T*S    EENTRO =        -0.06817673
  eigenvalues    EBANDS =     -2653.29401342
  atomic energy  EATOM  =     46663.16491575
  Solvation  Ediel_sol  =         0.00000000
  ---------------------------------------------------
  free energy    TOTEN  =      -370.43034904 eV

  energy without entropy =     -370.36217231  energy(sigma->0) =     -370.40762347


--------------------------------------------------------------------------------------------------------




--------------------------------------- Iteration      1(  14)  ---------------------------------------


    POTLOK:  cpu time    0.0094: real time    0.0096
    SETDIJ:  cpu time    0.0022: real time    0.0022
    EDDIAG:  cpu time    1.4666: real time    1.4701
  RMM-DIIS:  cpu time    4.6360: real time    4.6471
    ORTHCH:  cpu time    0.4809: real time    0.4820
       DOS:  cpu time    0.0076: real time    0.0077
    CHARGE:  cpu time    0.3066: real time    0.3073
    MIXING:  cpu time    0.0008: real time    0.0008
    --------------------------------------------
      LOOP:  cpu time    6.9101: real time    6.9267

 eigenvalue-minimisations  :  7813
 total energy-change (2. order) :-0.3494078E-01  (-0.6234460E-02)
 number of electron     639.9999983 magnetization 
 augmentation part      198.9879080 magnetization 

 Broyden mixing:
  rms(total) = 0.38247E+00    rms(broyden)= 0.38246E+00
  rms(prec ) = 0.42621E+00
  weight for this iteration     100.00

 eigenvalues of (default mixing * dielectric matrix)
  average eigenvalue GAMMA=   0.8602
  2.1077  2.0356  1.4118  0.6733  0.6733  0.3358  0.2779  0.1575  0.0686

 Free energy of the ion-electron system (eV)
  ---------------------------------------------------
  alpha Z        PSCENC =      1136.86868210
  Ewald energy   TEWEN  =    406265.19981054
  -Hartree energ DENC   =   -453619.59464153
  -exchange      EXHF   =         0.00000000
  -V(xc)+E(xc)   XCENC  =       191.90686734
  PAW double counting   =     56249.54507836   -54613.95637227
  entropy T*S    EENTRO =        -0.07337670
  eigenvalues    EBANDS =     -2643.52625341
  atomic energy  EATOM  =     46663.16491575
  Solvation  Ediel_sol  =         0.00000000
  ---------------------------------------------------
  free energy    TOTEN  =      -370.46528982 eV

  energy without entropy =     -370.39191313  energy(sigma->0) =     -370.44083092


--------------------------------------------------------------------------------------------------------




--------------------------------------- Iteration      1(  15)  ---------------------------------------


    POTLOK:  cpu time    0.0109: real time    0.0133
    SETDIJ:  cpu time    0.0046: real time    0.0051
    EDDIAG:  cpu time    1.4608: real time    1.4650
  RMM-DIIS:  cpu time    4.5785: real time    4.5893
    ORTHCH:  cpu time    0.4847: real time    0.4859
       DOS:  cpu time    0.0074: real time    0.0074
    CHARGE:  cpu time    0.3024: real time    0.3031
    MIXING:  cpu time    0.0008: real time    0.0008
    --------------------------------------------
      LOOP:  cpu time    6.8501: real time    6.8700

 eigenvalue-minimisations  :  7727
 total energy-change (2. order) : 0.1137492E+00  (-0.4761384E-02)
 number of electron     639.9999976 magnetization 
 augmentation part      198.9343360 magnetization 

 Broyden mixing:
  rms(total) = 0.16619E+00    rms(broyden)= 0.16618E+00
  rms(prec ) = 0.18170E+00
  weight for this iteration     100.00

 eigenvalues of (default mixing * dielectric matrix)
  average eigenvalue GAMMA=   0.8417
  2.1561  2.1561  1.3703  0.7281  0.7281  0.4563  0.3390  0.2567  0.1578  0.0686

 Free energy of the ion-electron system (eV)
  ---------------------------------------------------
  alpha Z        PSCENC =      1136.86868210
  Ewald energy   TEWEN  =    406265.19981054
  -Hartree energ DENC   =   -453624.46304958
  -exchange      EXHF   =         0.00000000
  -V(xc)+E(xc)   XCENC  =       192.10285564
  PAW double counting   =     56227.48566483   -54591.07942154
  entropy T*S    EENTRO =        -0.05335075
  eigenvalues    EBANDS =     -2639.57764760
  atomic energy  EATOM  =     46663.16491575
  Solvation  Ediel_sol  =         0.00000000
  ---------------------------------------------------
  free energy    TOTEN  =      -370.35154061 eV

  energy without entropy =     -370.29818987  energy(sigma->0) =     -370.33375703


--------------------------------------------------------------------------------------------------------




--------------------------------------- Iteration      1(  16)  ---------------------------------------


    POTLOK:  cpu time    0.0088: real time    0.0090
    SETDIJ:  cpu time    0.0022: real time    0.0022
    EDDIAG:  cpu time    1.4656: real time    1.4691
  RMM-DIIS:  cpu time    4.6197: real time    4.6307
    ORTHCH:  cpu time    0.4838: real time    0.4849
       DOS:  cpu time    0.0075: real time    0.0075
    CHARGE:  cpu time    0.3063: real time    0.3070
    MIXING:  cpu time    0.0008: real time    0.0008
    --------------------------------------------
      LOOP:  cpu time    6.8947: real time    6.9113

 eigenvalue-minimisations  :  7806
 total energy-change (2. order) : 0.1250713E-01  (-0.1249597E-02)
 number of electron     639.9999975 magnetization 
 augmentation part      198.9063159 magnetization 

 Broyden mixing:
  rms(total) = 0.11238E+00    rms(broyden)= 0.11238E+00
  rms(prec ) = 0.12201E+00
  weight for this iteration     100.00

 eigenvalues of (default mixing * dielectric matrix)
  average eigenvalue GAMMA=   0.8316
  2.2999  2.2999  1.3362  0.7927  0.7927  0.6119  0.3385  0.2660  0.0686  0.1578
  0.1838

 Free energy of the ion-electron system (eV)
  ---------------------------------------------------
  alpha Z        PSCENC =      1136.86868210
  Ewald energy   TEWEN  =    406265.19981054
  -Hartree energ DENC   =   -453627.94055450
  -exchange      EXHF   =         0.00000000
  -V(xc)+E(xc)   XCENC  =       192.17900797
  PAW double counting   =     56210.54930246   -54573.73413549
  entropy T*S    EENTRO =        -0.04778163
  eigenvalues    EBANDS =     -2636.57828067
  atomic energy  EATOM  =     46663.16491575
  Solvation  Ediel_sol  =         0.00000000
  ---------------------------------------------------
  free energy    TOTEN  =      -370.33903348 eV

  energy without entropy =     -370.29125185  energy(sigma->0) =     -370.32310627


--------------------------------------------------------------------------------------------------------




--------------------------------------- Iteration      1(  17)  ---------------------------------------


    POTLOK:  cpu time    0.0089: real time    0.0091
    SETDIJ:  cpu time    0.0022: real time    0.0022
    EDDIAG:  cpu time    1.4596: real time    1.4631
  RMM-DIIS:  cpu time    4.6589: real time    4.6701
    ORTHCH:  cpu time    0.4848: real time    0.4860
       DOS:  cpu time    0.0077: real time    0.0077
    CHARGE:  cpu time    0.3068: real time    0.3076
    MIXING:  cpu time    0.0009: real time    0.0009
    --------------------------------------------
      LOOP:  cpu time    6.9298: real time    6.9466

 eigenvalue-minimisations  :  7870
 total energy-change (2. order) : 0.5623973E-02  (-0.4437012E-03)
 number of electron     639.9999974 magnetization 
 augmentation part      198.8878814 magnetization 

 Broyden mixing:
  rms(total) = 0.63964E-01    rms(broyden)= 0.63962E-01
  rms(prec ) = 0.69389E-01
  weight for this iteration     100.00

 eigenvalues of (default mixing * dielectric matrix)
  average eigenvalue GAMMA=   0.8170
  2.4254  2.4254  1.3247  0.8405  0.8405  0.6436  0.3429  0.3071  0.2661  0.0686
  0.1568  0.1620

 Free energy of the ion-electron system (eV)
  ---------------------------------------------------
  alpha Z        PSCENC =      1136.86868210
  Ewald energy   TEWEN  =    406265.19981054
  -Hartree energ DENC   =   -453631.60229621
  -exchange      EXHF   =         0.00000000
  -V(xc)+E(xc)   XCENC  =       192.23495066
  PAW double counting   =     56191.63230035   -54554.46203656
  entropy T*S    EENTRO =        -0.04522120
  eigenvalues    EBANDS =     -2633.32451494
  atomic energy  EATOM  =     46663.16491575
  Solvation  Ediel_sol  =         0.00000000
  ---------------------------------------------------
  free energy    TOTEN  =      -370.33340951 eV

  energy without entropy =     -370.28818830  energy(sigma->0) =     -370.31833577


--------------------------------------------------------------------------------------------------------




--------------------------------------- Iteration      1(  18)  ---------------------------------------


    POTLOK:  cpu time    0.0088: real time    0.0090
    SETDIJ:  cpu time    0.0022: real time    0.0022
    EDDIAG:  cpu time    1.4614: real time    1.4649
  RMM-DIIS:  cpu time    4.6293: real time    4.6403
    ORTHCH:  cpu time    0.4802: real time    0.4814
       DOS:  cpu time    0.0076: real time    0.0076
    CHARGE:  cpu time    0.3114: real time    0.3122
    MIXING:  cpu time    0.0009: real time    0.0009
    --------------------------------------------
      LOOP:  cpu time    6.9019: real time    6.9185

 eigenvalue-minimisations  :  7804
 total energy-change (2. order) : 0.1492746E-02  (-0.1505996E-03)
 number of electron     639.9999974 magnetization 
 augmentation part      198.8807345 magnetization 

 Broyden mixing:
  rms(total) = 0.42115E-01    rms(broyden)= 0.42114E-01
  rms(prec ) = 0.46023E-01
  weight for this iteration     100.00

 eigenvalues of (default mixing * dielectric matrix)
  average eigenvalue GAMMA=   0.8536
  2.5691  2.5691  1.3657  1.0189  1.0189  0.6623  0.6623  0.3374  0.0686  0.2785
  0.2356  0.1578  0.1534

 Free energy of the ion-electron system (eV)
  ---------------------------------------------------
  alpha Z        PSCENC =      1136.86868210
  Ewald energy   TEWEN  =    406265.19981054
  -Hartree energ DENC   =   -453634.02750520
  -exchange      EXHF   =         0.00000000
  -V(xc)+E(xc)   XCENC  =       192.26203417
  PAW double counting   =     56180.50770399   -54543.15004377
  entropy T*S    EENTRO =        -0.04446640
  eigenvalues    EBANDS =     -2631.11304794
  atomic energy  EATOM  =     46663.16491575
  Solvation  Ediel_sol  =         0.00000000
  ---------------------------------------------------
  free energy    TOTEN  =      -370.33191676 eV

  energy without entropy =     -370.28745036  energy(sigma->0) =     -370.31709463


--------------------------------------------------------------------------------------------------------




--------------------------------------- Iteration      1(  19)  ---------------------------------------


    POTLOK:  cpu time    0.0092: real time    0.0124
    SETDIJ:  cpu time    0.0022: real time    0.0022
    EDDIAG:  cpu time    1.4594: real time    1.4629
  RMM-DIIS:  cpu time    4.6050: real time    4.6160
    ORTHCH:  cpu time    0.4799: real time    0.4810
       DOS:  cpu time    0.0076: real time    0.0076
    CHARGE:  cpu time    0.3121: real time    0.3128
    MIXING:  cpu time    0.0010: real time    0.0010
    --------------------------------------------
      LOOP:  cpu time    6.8764: real time    6.8959

 eigenvalue-minimisations  :  7767
 total energy-change (2. order) : 0.9102909E-03  (-0.1001389E-03)
 number of electron     639.9999973 magnetization 
 augmentation part      198.8789293 magnetization 

 Broyden mixing:
  rms(total) = 0.23728E-01    rms(broyden)= 0.23727E-01
  rms(prec ) = 0.25951E-01
  weight for this iteration     100.00

 eigenvalues of (default mixing * dielectric matrix)
  average eigenvalue GAMMA=   0.8607
  2.6469  2.6469  1.5239  1.1328  1.1328  0.7135  0.7135  0.0686  0.3371  0.3242
  0.2686  0.2306  0.1578  0.1529

 Free energy of the ion-electron system (eV)
  ---------------------------------------------------
  alpha Z        PSCENC =      1136.86868210
  Ewald energy   TEWEN  =    406265.19981054
  -Hartree energ DENC   =   -453637.41366322
  -exchange      EXHF   =         0.00000000
  -V(xc)+E(xc)   XCENC  =       192.29290241
  PAW double counting   =     56173.40698617   -54535.89006174
  entropy T*S    EENTRO =        -0.04308720
  eigenvalues    EBANDS =     -2627.91749128
  atomic energy  EATOM  =     46663.16491575
  Solvation  Ediel_sol  =         0.00000000
  ---------------------------------------------------
  free energy    TOTEN  =      -370.33100647 eV

  energy without entropy =     -370.28791927  energy(sigma->0) =     -370.31664407


--------------------------------------------------------------------------------------------------------




--------------------------------------- Iteration      1(  20)  ---------------------------------------


    POTLOK:  cpu time    0.0088: real time    0.0090
    SETDIJ:  cpu time    0.0023: real time    0.0023
    EDDIAG:  cpu time    1.4692: real time    1.4727
  RMM-DIIS:  cpu time    4.6125: real time    4.6235
    ORTHCH:  cpu time    0.4835: real time    0.4846
       DOS:  cpu time    0.0076: real time    0.0076
    CHARGE:  cpu time    0.3113: real time    0.3121
    MIXING:  cpu time    0.0014: real time    0.0014
    --------------------------------------------
      LOOP:  cpu time    6.8966: real time    6.9132

 eigenvalue-minimisations  :  7779
 total energy-change (2. order) : 0.4720881E-03  (-0.5400865E-04)
 number of electron     639.9999973 magnetization 
 augmentation part      198.8781243 magnetization 

 Broyden mixing:
  rms(total) = 0.92851E-02    rms(broyden)= 0.92838E-02
  rms(prec ) = 0.98706E-02
  weight for this iteration     100.00

 eigenvalues of (default mixing * dielectric matrix)
  average eigenvalue GAMMA=   0.8432
  2.5732  2.5732  1.6601  1.1659  1.1659  0.7147  0.7147  0.5707  0.3381  0.0686
  0.2906  0.2740  0.2276  0.1578  0.1530

 Free energy of the ion-electron system (eV)
  ---------------------------------------------------
  alpha Z        PSCENC =      1136.86868210
  Ewald energy   TEWEN  =    406265.19981054
  -Hartree energ DENC   =   -453639.95744773
  -exchange      EXHF   =         0.00000000
  -V(xc)+E(xc)   XCENC  =       192.31195335
  PAW double counting   =     56174.20487450   -54536.63980658
  entropy T*S    EENTRO =        -0.04222192
  eigenvalues    EBANDS =     -2625.44129439
  atomic energy  EATOM  =     46663.16491575
  Solvation  Ediel_sol  =         0.00000000
  ---------------------------------------------------
  free energy    TOTEN  =      -370.33053438 eV

  energy without entropy =     -370.28831246  energy(sigma->0) =     -370.31646041


--------------------------------------------------------------------------------------------------------




--------------------------------------- Iteration      1(  21)  ---------------------------------------


    POTLOK:  cpu time    0.0087: real time    0.0089
    SETDIJ:  cpu time    0.0022: real time    0.0022
    EDDIAG:  cpu time    1.4663: real time    1.4698
  RMM-DIIS:  cpu time    4.1067: real time    4.1164
    ORTHCH:  cpu time    0.4860: real time    0.4871
       DOS:  cpu time    0.0078: real time    0.0078
    CHARGE:  cpu time    0.3103: real time    0.3110
    MIXING:  cpu time    0.0011: real time    0.0011
    --------------------------------------------
      LOOP:  cpu time    6.3891: real time    6.4044

 eigenvalue-minimisations  :  6852
 total energy-change (2. order) :-0.4218371E-04  (-0.8478878E-05)
 number of electron     639.9999973 magnetization 
 augmentation part      198.8762255 magnetization 

 Broyden mixing:
  rms(total) = 0.72187E-02    rms(broyden)= 0.72186E-02
  rms(prec ) = 0.78575E-02
  weight for this iteration     100.00

 eigenvalues of (default mixing * dielectric matrix)
  average eigenvalue GAMMA=   0.8403
  2.3571  2.3571  2.3000  1.1956  1.0516  0.8766  0.7594  0.7594  0.0686  0.3386
  0.3194  0.2621  0.2621  0.2269  0.1578  0.1530

 Free energy of the ion-electron system (eV)
  ---------------------------------------------------
  alpha Z        PSCENC =      1136.86868210
  Ewald energy   TEWEN  =    406265.19981054
  -Hartree energ DENC   =   -453640.99440729
  -exchange      EXHF   =         0.00000000
  -V(xc)+E(xc)   XCENC  =       192.31505567
  PAW double counting   =     56178.73175944   -54541.20325213
  entropy T*S    EENTRO =        -0.04226485
  eigenvalues    EBANDS =     -2624.37087579
  atomic energy  EATOM  =     46663.16491575
  Solvation  Ediel_sol  =         0.00000000
  ---------------------------------------------------
  free energy    TOTEN  =      -370.33057657 eV

  energy without entropy =     -370.28831171  energy(sigma->0) =     -370.31648828


--------------------------------------------------------------------------------------------------------




--------------------------------------- Iteration      1(  22)  ---------------------------------------


    POTLOK:  cpu time    0.0087: real time    0.0105
    SETDIJ:  cpu time    0.0022: real time    0.0022
    EDDIAG:  cpu time    1.4718: real time    1.4753
  RMM-DIIS:  cpu time    2.9954: real time    3.0025
    ORTHCH:  cpu time    0.4893: real time    0.4905
       DOS:  cpu time    0.0077: real time    0.0077
    CHARGE:  cpu time    0.3120: real time    0.3127
    MIXING:  cpu time    0.0013: real time    0.0013
    --------------------------------------------
      LOOP:  cpu time    5.2884: real time    5.3028

 eigenvalue-minimisations  :  4790
 total energy-change (2. order) :-0.4318068E-04  (-0.2702989E-05)
 number of electron     639.9999973 magnetization 
 augmentation part      198.8748135 magnetization 

 Broyden mixing:
  rms(total) = 0.61675E-02    rms(broyden)= 0.61674E-02
  rms(prec ) = 0.67870E-02
  weight for this iteration     100.00

 eigenvalues of (default mixing * dielectric matrix)
  average eigenvalue GAMMA=   0.8226
  2.3968  2.3968  2.4269  1.2823  0.9888  0.9888  0.7448  0.7448  0.0686  0.3519
  0.3362  0.2733  0.2733  0.2278  0.1578  0.1530  0.1727

 Free energy of the ion-electron system (eV)
  ---------------------------------------------------
  alpha Z        PSCENC =      1136.86868210
  Ewald energy   TEWEN  =    406265.19981054
  -Hartree energ DENC   =   -453642.07959784
  -exchange      EXHF   =         0.00000000
  -V(xc)+E(xc)   XCENC  =       192.31854492
  PAW double counting   =     56182.34184087   -54544.84300945
  entropy T*S    EENTRO =        -0.04220487
  eigenvalues    EBANDS =     -2623.25960177
  atomic energy  EATOM  =     46663.16491575
  Solvation  Ediel_sol  =         0.00000000
  ---------------------------------------------------
  free energy    TOTEN  =      -370.33061975 eV

  energy without entropy =     -370.28841488  energy(sigma->0) =     -370.31655146


--------------------------------------------------------------------------------------------------------




--------------------------------------- Iteration      1(  23)  ---------------------------------------


    POTLOK:  cpu time    0.0088: real time    0.0089
    SETDIJ:  cpu time    0.0022: real time    0.0022
    EDDIAG:  cpu time    1.4838: real time    1.4874
  RMM-DIIS:  cpu time    2.7053: real time    2.7117
    ORTHCH:  cpu time    0.4920: real time    0.4932
       DOS:  cpu time    0.0076: real time    0.0076
    CHARGE:  cpu time    0.3137: real time    0.3144
    MIXING:  cpu time    0.0013: real time    0.0013
    --------------------------------------------
      LOOP:  cpu time    5.0147: real time    5.0267

 eigenvalue-minimisations  :  4243
 total energy-change (2. order) :-0.1298347E-04  (-0.1205241E-05)
 number of electron     639.9999973 magnetization 
 augmentation part      198.8743205 magnetization 

 Broyden mixing:
  rms(total) = 0.40736E-02    rms(broyden)= 0.40735E-02
  rms(prec ) = 0.44749E-02
  weight for this iteration     100.00

 eigenvalues of (default mixing * dielectric matrix)
  average eigenvalue GAMMA=   0.8347
  2.5158  2.5158  2.3904  1.3374  1.1045  0.8909  0.8909  0.6975  0.6975  0.0686
  0.3368  0.3333  0.2819  0.2700  0.2275  0.1578  0.1531  0.1551

 Free energy of the ion-electron system (eV)
  ---------------------------------------------------
  alpha Z        PSCENC =      1136.86868210
  Ewald energy   TEWEN  =    406265.19981054
  -Hartree energ DENC   =   -453642.69389439
  -exchange      EXHF   =         0.00000000
  -V(xc)+E(xc)   XCENC  =       192.32087793
  PAW double counting   =     56183.00372412   -54545.50894081
  entropy T*S    EENTRO =        -0.04213967
[...]
 -0.050  -0.000  -0.000  -0.254   0.000   0.049   0.000   0.000   0.244  -0.000  -0.000   0.000  -0.000  -0.000   0.260  -0.000
 -0.000   0.012   0.000   0.000   0.003  -0.000  -0.016  -0.000  -0.000  -0.003   0.000  -0.000  -0.013   0.000  -0.000   0.001
  0.000   0.000   0.004  -0.000  -0.000   0.000  -0.000  -0.018   0.000   0.000  -0.017   0.005   0.000  -0.008   0.000  -0.000
  0.003   0.000   0.000   0.012  -0.000  -0.003  -0.000  -0.000  -0.016  -0.000  -0.000  -0.000  -0.000   0.000  -0.013   0.000


------------------------ aborting loop because EDIFF is reached ----------------------------------------


    CHARGE:  cpu time    0.3691: real time    0.3700
    FORLOC:  cpu time    0.0032: real time    0.0032
    FORNL :  cpu time    1.6160: real time    1.6199
    STRESS:  cpu time    0.5603: real time    0.5617
    FORCOR:  cpu time    0.0119: real time    0.0120
    FORHAR:  cpu time    0.0043: real time    0.0044
    MIXING:  cpu time    0.0005: real time    0.0005
    OFIELD:  cpu time    0.0000: real time    0.0000
 only isotrope contributions calculated
  for stress because ISIF=1 (only pressure is correct)

  FORCE on cell =-STRESS in cart. coord.  units (eV):
  Direction    XX          YY          ZZ          XY          YZ          ZX
  --------------------------------------------------------------------------------------
  Alpha Z  1136.86868  1136.86868  1136.86868
  Ewald  442130.95423442130.95556************     0.00083    -0.00052     0.00044
  Hartree451373.90967451373.90852************     0.00157     0.00006     0.00049
  E(xc)   -2828.96874 -2828.97001 -2848.44947     0.00111    -0.00000     0.00000
  Local  ************************914508.03012     0.01720    -0.00028    -0.00191
  n-local   266.32330   266.32330   266.32330     0.00000     0.00000     0.00000
  augment  3371.30985  3371.30985  3371.30985     0.00000     0.00000     0.00000
  Kinetic  9209.15393  9209.14724  9485.30015     0.00546     0.00056     0.00070
  Fock        0.00000     0.00000     0.00000     0.00000     0.00000     0.00000
  -------------------------------------------------------------------------------------
  Total     -44.20367   -44.23383   -41.60193     0.02616    -0.00019    -0.00028
  in kB     -20.67899   -20.69310   -19.46187     0.01224    -0.00009    -0.00013
  external pressure =      -20.28 kB  Pullay stress =        0.00 kB


 VOLUME and BASIS-vectors are now :
 -----------------------------------------------------------------------------
  energy-cutoff  :      400.00
  volume of cell :     3424.83
      direct lattice vectors                 reciprocal lattice vectors
    11.214359184  0.000000000  0.000000000     0.089171390 -0.051483119  0.000000000
     5.607178664  9.711919634  0.000000000     0.000000000  0.102966256  0.000000000
     0.000000000  0.000000000 31.445607950     0.000000000  0.000000000  0.031800943

  length of vectors
    11.214359184 11.214358455 31.445607950     0.102966249  0.102966256  0.031800943


 FORCES acting on ions
    electron-ion (+dipol)            ewald-force                    non-local-force                 convergence-correction
 -----------------------------------------------------------------------------------------------
   -.538E-04 0.158E-02 0.282E+04   0.552E-02 0.461E-02 -.282E+04   0.981E-04 0.392E-02 -.116E+01   -.570E-02 -.689E-02 -.194E+00
   -.579E-02 -.706E-02 0.282E+04   -.303E-02 -.755E-02 -.282E+04   -.339E-02 -.206E-02 -.116E+01   0.945E-02 0.152E-01 -.197E+00
   0.113E-01 0.203E-01 0.282E+04   0.871E-02 0.684E-02 -.282E+04   0.182E-03 0.173E-03 -.116E+01   -.205E-01 -.276E-01 -.203E+00
   -.103E-01 0.202E-02 0.282E+04   0.496E-02 -.217E-02 -.282E+04   0.338E-02 -.190E-02 -.116E+01   0.484E-02 0.392E-03 -.194E+00
   -.274E-01 -.279E-01 0.945E+03   0.403E-01 0.497E-01 -.944E+03   0.271E-03 -.345E-02 -.386E+00   -.127E-01 -.212E-01 -.682E+00
   0.293E-01 0.247E-01 0.945E+03   -.216E-01 -.469E-02 -.944E+03   0.317E-02 0.154E-02 -.385E+00   -.820E-02 -.203E-01 -.667E+00
   -.204E-01 0.756E-02 0.945E+03   0.173E-01 -.113E-01 -.944E+03   0.199E-03 -.671E-04 -.387E+00   0.328E-02 0.363E-02 -.678E+00
   -.516E-01 -.539E-02 0.945E+03   0.785E-01 0.202E-01 -.944E+03   -.262E-02 0.189E-02 -.386E+00   -.263E-01 -.150E-01 -.674E+00
   -.135E-02 0.388E-01 -.946E+03   -.551E-02 -.473E-01 0.946E+03   -.280E-03 -.119E-02 0.433E+00   0.707E-02 0.881E-02 -.574E+00
   -.210E-01 -.364E-01 -.946E+03   0.349E-01 0.441E-01 0.946E+03   0.109E-02 0.952E-03 0.433E+00   -.141E-01 -.799E-02 -.579E+00
   0.318E-02 0.401E-01 -.945E+03   0.261E-02 -.319E-01 0.946E+03   -.400E-03 -.238E-03 0.436E+00   -.533E-02 -.845E-02 -.587E+00
   0.702E-03 -.218E-01 -.946E+03   0.669E-02 0.355E-01 0.946E+03   -.793E-03 0.808E-03 0.431E+00   -.675E-02 -.141E-01 -.572E+00
   0.696E-02 0.355E+00 -.282E+04   -.133E-02 -.349E+00 0.282E+04   0.189E-03 -.486E-02 0.111E+01   -.566E-02 -.164E-02 -.130E+00
   -.330E+00 -.180E+00 -.282E+04   0.319E+00 0.175E+00 0.282E+04   0.427E-02 0.205E-02 0.111E+01   0.789E-02 0.307E-02 -.127E+00
   0.325E-02 -.583E-01 -.282E+04   0.370E-02 0.580E-01 0.282E+04   0.728E-03 0.125E-02 0.111E+01   -.751E-02 -.318E-03 -.123E+00
   0.357E+00 -.182E+00 -.282E+04   -.345E+00 0.183E+00 0.282E+04   -.469E-02 0.256E-02 0.111E+01   -.780E-02 -.358E-02 -.128E+00
   0.173E-01 -.976E-02 0.282E+04   -.173E-02 -.973E-02 -.282E+04   0.456E-04 0.367E-02 -.116E+01   -.157E-01 0.194E-01 -.205E+00
   0.216E-01 -.388E-02 0.282E+04   0.921E-02 0.691E-02 -.282E+04   -.310E-02 -.184E-02 -.116E+01   -.310E-01 -.297E-02 -.203E+00
   -.160E-01 -.173E-01 0.282E+04   -.377E-02 -.996E-02 -.282E+04   -.129E-03 -.233E-03 -.116E+01   0.200E-01 0.279E-01 -.203E+00
   0.704E-02 -.310E-03 0.282E+04   -.220E-02 0.841E-03 -.282E+04   0.328E-02 -.194E-02 -.116E+01   -.519E-02 -.190E-03 -.212E+00
   0.845E-02 -.306E-01 0.945E+03   -.300E-01 0.148E-01 -.944E+03   -.376E-03 -.358E-02 -.385E+00   0.214E-01 0.163E-01 -.661E+00
   0.225E-02 0.292E-01 0.945E+03   -.195E-01 -.447E-01 -.944E+03   0.315E-02 0.171E-02 -.386E+00   0.169E-01 0.151E-01 -.676E+00
   0.153E-01 -.859E-02 0.945E+03   0.658E-02 0.149E-02 -.944E+03   -.240E-04 0.109E-03 -.385E+00   -.219E-01 0.719E-02 -.665E+00
   -.203E-01 0.484E-01 0.945E+03   0.129E-01 -.745E-01 -.944E+03   -.303E-02 0.142E-02 -.386E+00   0.769E-02 0.256E-01 -.669E+00
   0.412E-01 -.215E-01 -.946E+03   -.233E-01 0.260E-01 0.946E+03   -.158E-02 -.995E-03 0.432E+00   -.171E-01 -.364E-02 -.561E+00
   0.105E-01 0.127E-01 -.946E+03   -.164E-01 -.261E-01 0.946E+03   0.853E-03 0.560E-03 0.431E+00   0.510E-02 0.130E-01 -.557E+00
   -.104E-01 -.182E-01 -.946E+03   -.385E-02 0.150E-01 0.946E+03   0.157E-03 0.323E-04 0.434E+00   0.142E-01 0.329E-02 -.562E+00
   -.403E-01 0.179E-01 -.946E+03   0.231E-01 -.270E-01 0.946E+03   0.436E-03 0.342E-03 0.433E+00   0.173E-01 0.876E-02 -.564E+00
   -.381E-01 0.409E+00 -.282E+04   0.355E-01 -.401E+00 0.282E+04   0.705E-03 -.600E-02 0.111E+01   0.195E-02 -.343E-02 -.118E+00
   -.357E+00 -.168E+00 -.282E+04   0.358E+00 0.164E+00 0.282E+04   0.584E-02 0.242E-02 0.111E+01   -.536E-02 0.268E-02 -.120E+00
   0.869E-02 0.388E-01 -.282E+04   -.140E-01 -.394E-01 0.282E+04   -.636E-03 -.104E-02 0.111E+01   0.600E-02 0.106E-02 -.126E+00
   0.314E+00 -.197E+00 -.282E+04   -.311E+00 0.187E+00 0.282E+04   -.418E-02 0.261E-02 0.111E+01   -.541E-04 0.822E-02 -.112E+00
   -.415E-03 0.217E-01 0.282E+04   -.515E-02 0.251E-02 -.282E+04   -.479E-04 0.394E-02 -.116E+01   0.573E-02 -.251E-01 -.207E+00
   0.424E-02 0.184E-01 0.282E+04   0.558E-02 0.200E-02 -.282E+04   -.325E-02 -.181E-02 -.116E+01   -.960E-02 -.205E-01 -.198E+00
   -.109E-01 0.106E-02 0.282E+04   -.912E-02 0.326E-02 -.282E+04   -.186E-03 0.602E-04 -.116E+01   0.205E-01 -.449E-02 -.198E+00
   0.120E-01 0.910E-02 0.282E+04   -.753E-02 -.317E-02 -.282E+04   0.323E-02 -.192E-02 -.116E+01   -.468E-02 -.565E-02 -.200E+00
   0.285E-01 -.237E-01 0.945E+03   -.413E-01 0.207E-01 -.944E+03   -.286E-03 -.353E-02 -.386E+00   0.126E-01 0.338E-02 -.676E+00
   0.314E-01 -.147E-01 0.945E+03   -.400E-01 0.152E-01 -.944E+03   0.296E-02 0.192E-02 -.387E+00   0.809E-02 -.665E-03 -.674E+00
   0.193E-01 0.171E-01 0.945E+03   -.162E-01 0.435E-02 -.944E+03   -.181E-03 -.121E-03 -.385E+00   -.319E-02 -.215E-01 -.679E+00
   -.137E-01 0.851E-02 0.945E+03   -.124E-01 -.275E-02 -.944E+03   -.319E-02 0.171E-02 -.385E+00   0.264E-01 -.601E-02 -.667E+00
   -.266E-02 0.285E-01 -.946E+03   0.922E-02 -.189E-01 0.946E+03   0.297E-03 -.116E-02 0.432E+00   -.687E-02 -.902E-02 -.579E+00
   0.720E-02 -.251E-01 -.946E+03   -.219E-01 0.266E-01 0.946E+03   0.104E-02 0.857E-03 0.432E+00   0.137E-01 -.198E-02 -.571E+00
   0.540E-02 0.380E-01 -.945E+03   -.109E-01 -.461E-01 0.946E+03   0.160E-03 -.175E-03 0.436E+00   0.511E-02 0.769E-02 -.577E+00
   0.971E-02 -.214E-01 -.946E+03   -.161E-01 0.168E-01 0.946E+03   -.112E-02 0.719E-03 0.434E+00   0.712E-02 0.414E-02 -.577E+00
   -.883E-02 0.312E+00 -.282E+04   0.316E-02 -.309E+00 0.282E+04   -.242E-03 -.404E-02 0.111E+01   0.580E-02 0.497E-03 -.116E+00
   -.318E+00 -.209E+00 -.282E+04   0.316E+00 0.213E+00 0.282E+04   0.468E-02 0.335E-02 0.111E+01   -.148E-02 -.669E-02 -.122E+00
   -.854E-03 -.317E-01 -.282E+04   -.614E-02 0.251E-01 0.282E+04   -.571E-03 0.401E-03 0.111E+01   0.736E-02 0.658E-02 -.131E+00
   0.292E+00 -.202E+00 -.282E+04   -.290E+00 0.200E+00 0.282E+04   -.428E-02 0.283E-02 0.111E+01   0.139E-02 -.471E-04 -.121E+00
   -.174E-01 -.953E-02 0.282E+04   0.187E-02 -.355E-02 -.282E+04   -.338E-04 0.375E-02 -.116E+01   0.157E-01 0.128E-01 -.194E+00
   -.235E-01 -.916E-02 0.282E+04   -.640E-02 0.139E-02 -.282E+04   -.354E-02 -.193E-02 -.116E+01   0.310E-01 0.807E-02 -.204E+00
   0.161E-01 -.407E-02 0.282E+04   0.358E-02 -.109E-03 -.282E+04   0.975E-04 -.252E-04 -.116E+01   -.200E-01 0.422E-02 -.197E+00
   -.505E-02 -.131E-01 0.282E+04   -.608E-03 0.792E-02 -.282E+04   0.330E-02 -.184E-02 -.116E+01   0.527E-02 0.531E-02 -.195E+00
   -.549E-02 -.668E-01 0.945E+03   0.269E-01 0.658E-01 -.944E+03   0.550E-04 -.309E-02 -.386E+00   -.213E-01 0.168E-02 -.676E+00
   0.582E-01 0.396E-01 0.945E+03   -.420E-01 -.457E-01 -.944E+03   0.271E-02 0.157E-02 -.385E+00   -.168E-01 0.572E-02 -.677E+00
   -.128E-01 -.242E-01 0.945E+03   -.895E-02 0.135E-01 -.944E+03   0.101E-04 0.273E-03 -.386E+00   0.218E-01 0.108E-01 -.672E+00
   -.423E-01 0.260E-01 0.945E+03   0.505E-01 -.215E-01 -.944E+03   -.281E-02 0.172E-02 -.385E+00   -.771E-02 -.477E-02 -.684E+00
   0.160E-01 -.366E-01 -.946E+03   -.318E-01 0.331E-01 0.946E+03   -.180E-03 -.104E-02 0.433E+00   0.156E-01 0.470E-02 -.569E+00
   0.209E-01 0.118E-01 -.946E+03   -.157E-01 -.849E-02 0.946E+03   0.457E-03 0.324E-03 0.433E+00   -.570E-02 -.338E-02 -.577E+00
   -.284E-01 -.301E-01 -.945E+03   0.426E-01 0.334E-01 0.946E+03   0.459E-03 -.976E-04 0.437E+00   -.140E-01 -.278E-02 -.580E+00
   -.833E-02 0.248E-01 -.946E+03   0.244E-01 -.260E-01 0.946E+03   -.653E-03 0.303E-03 0.431E+00   -.155E-01 0.879E-03 -.568E+00
   0.513E-01 0.428E+00 -.282E+04   -.486E-01 -.413E+00 0.282E+04   -.960E-03 -.592E-02 0.110E+01   -.210E-02 -.103E-01 -.128E+00
   -.307E+00 -.193E+00 -.282E+04   0.292E+00 0.183E+00 0.282E+04   0.335E-02 0.247E-02 0.111E+01   0.118E-01 0.838E-02 -.121E+00
   -.191E-01 0.382E-01 -.282E+04   0.243E-01 -.309E-01 0.282E+04   0.701E-03 -.301E-03 0.111E+01   -.584E-02 -.733E-02 -.128E+00
   0.345E+00 -.162E+00 -.282E+04   -.335E+00 0.157E+00 0.282E+04   -.471E-02 0.232E-02 0.111E+01   -.643E-02 0.282E-02 -.129E+00
 -----------------------------------------------------------------------------------------------
   0.128E-03 0.112E-03 0.244E+02   -.455E-14 0.165E-12 0.364E-11   0.755E-04 0.134E-03 -.946E-01   -.119E-03 -.896E-04 -.251E+02
 
 
 POSITION                                       TOTAL-FORCE (eV/Angst)
 -----------------------------------------------------------------------------------
      2.80359      3.23731     12.28912        -0.000137      0.003210     -0.048704
      1.40179      0.80933     12.28912        -0.002767     -0.001427     -0.048842
      5.60718      3.23731     12.28912        -0.000361     -0.000353     -0.049196
      4.20538      0.80933     12.28912         0.002832     -0.001664     -0.048523
      5.60718      1.61865     14.57824         0.000443     -0.002934      0.042050
      7.00897      4.04663     14.57824         0.002690      0.001241      0.043110
      2.80359      1.61865     14.57824         0.000334     -0.000143      0.040450
      4.20538      4.04663     14.57824        -0.002053      0.001690      0.042037
      2.80362      0.00009     16.84659        -0.000072     -0.000926      0.005854
      4.20534      2.42793     16.84658         0.000873      0.000660      0.005858
      5.60722      0.00001     16.84633         0.000049     -0.000506      0.005329
      7.00903      2.42789     16.84688        -0.000154      0.000342      0.004939
      2.80356      3.23779     19.15067         0.000168     -0.000742      0.001207
      1.40136      0.80914     19.15067         0.000936      0.000229      0.001377
      5.60709      3.23719     19.15088         0.000169      0.000614      0.002220
      4.20584      0.80908     19.15080        -0.000874      0.000313      0.001236
      5.60718      8.09327     12.28912        -0.000087      0.003619     -0.049116
      4.20538      5.66529     12.28912        -0.003299     -0.001786     -0.048950
      8.41077      8.09327     12.28912         0.000170      0.000381     -0.049397
      7.00897      5.66529     12.28912         0.002941     -0.001603     -0.049546
      8.41077      6.47461     14.57824        -0.000436     -0.003057      0.042961
      9.81256      8.90259     14.57824         0.002789      0.001383      0.041793
      5.60718      6.47461     14.57824        -0.000044      0.000206      0.043149
      7.00897      8.90259     14.57824        -0.002664      0.000939      0.042261
      5.60732      4.85602     16.84683        -0.000797     -0.000109      0.005671
      7.00890      7.28392     16.84693         0.000018      0.000106      0.005077
      8.41078      4.85594     16.84654         0.000132      0.000084      0.004675
      9.81251      7.28394     16.84669         0.000545      0.000055      0.006313
      5.60712      8.09389     19.15099         0.000101     -0.001583      0.000970
      4.20481      5.66500     19.15099         0.001424      0.000579      0.000424
      8.41082      8.09339     19.15087         0.000027     -0.000540      0.001966
      7.00941      5.66502     19.15102        -0.000948      0.000673      0.000964
      8.41077      3.23731     12.28912         0.000124      0.003107     -0.049166
      7.00897      0.80933     12.28912        -0.003031     -0.001867     -0.048421
     11.21436      3.23731     12.28912         0.000295     -0.000113     -0.049177
      9.81256      0.80933     12.28912         0.002990     -0.001658     -0.048793
     11.21436      1.61865     14.57824        -0.000490     -0.003104      0.041275
     12.61615      4.04663     14.57824         0.002450      0.001807      0.040987
      8.41077      1.61865     14.57824        -0.000244     -0.000189      0.042400
      9.81256      4.04663     14.57824        -0.002884      0.001457      0.042416
      8.41074      0.00006     16.84685        -0.000016     -0.000630      0.005161
      9.81249      2.42791     16.84672         0.000037      0.000354      0.005301
     -0.00002      0.00001     16.84631        -0.000237     -0.000570      0.005111
      1.40187      2.42794     16.84642        -0.000441      0.000308      0.006235
      8.41081      3.23773     19.15093        -0.000111     -0.000654      0.001339
      7.00849      0.80900     19.15103         0.000970      0.000493      0.001257
     11.21443      3.23726     19.15066        -0.000208      0.000403      0.002350
      9.81303      0.80906     19.15090        -0.001050      0.000410      0.001391
     11.21436      8.09327     12.28912         0.000119      0.003458     -0.048506
      9.81256      5.66529     12.28912        -0.002501     -0.001628     -0.049211
     14.01795      8.09327     12.28912        -0.000225      0.000016     -0.048696
     12.61615      5.66529     12.28912         0.002913     -0.001726     -0.048628
     14.01795      6.47461     14.57824         0.000117     -0.002357      0.042373
     15.41974      8.90259     14.57824         0.002141      0.001205      0.042764
     11.21436      6.47461     14.57824         0.000086      0.000377      0.041980
     12.61615      8.90259     14.57824        -0.002292      0.001439      0.042384
     11.21439      4.85605     16.84663        -0.000491      0.000183      0.006010
     12.61611      7.28394     16.84675        -0.000040      0.000261      0.005875
      2.80359      4.85598     16.84621         0.000653      0.000474      0.005835
      4.20541      7.28393     16.84690         0.000006     -0.000025      0.005276
     11.21441      8.09386     19.15102        -0.000341     -0.001605      0.000239
      9.81222      5.66503     19.15092         0.000785      0.000910      0.000526
     14.01788      8.09330     19.15107         0.000048     -0.000289      0.001866
     12.61663      5.66502     19.15089        -0.001077      0.000802      0.000626
 -----------------------------------------------------------------------------------
    total drift:                                0.000085      0.000156     -0.799711


--------------------------------------------------------------------------------------------------------



  FREE ENERGIE OF THE ION-ELECTRON SYSTEM (eV)
  ---------------------------------------------------
  free  energy   TOTEN  =      -370.36317574 eV

  energy  without entropy=     -370.32002952  energy(sigma->0) =     -370.34879367
 
 d Force = 0.1387402E-03[ 0.520E-04, 0.225E-03]  d Energy = 0.9991502E-04 0.388E-04
 d Force = 0.4487114E+01[ 0.449E+01, 0.449E+01]  d Ewald  = 0.4487114E+01 0.698E-09


--------------------------------------------------------------------------------------------------------


    POTLOK:  cpu time    0.0125: real time    0.0125


--------------------------------------------------------------------------------------------------------


 stress matrix after NEB project (eV)
    -44.20367      0.02616     -0.00028
      0.02616    -44.23383     -0.00019
     -0.00028     -0.00019    -41.60193
  FORCES: max atom, RMS     0.006337    0.002926
  FORCE total and by dimension    0.023412    0.006313
  Stress total and by dimension   75.108703   44.233826


--------------------------------------------------------------------------------------------------------


  
 reached required accuracy - stopping structural energy minimisation
     LOOP+:  cpu time   32.6374: real time   32.7271
    4ORBIT:  cpu time    0.0000: real time    0.0000

 total amount of memory used by VASP MPI-rank0    97096. kBytes
=======================================================================

   base      :      30000. kBytes
   nonlr-proj:       2622. kBytes
   fftplans  :       1451. kBytes
   grid      :       2044. kBytes
   one-center:         31. kBytes
   wavefun   :      60948. kBytes
 
  
  
 General timing and accounting informations for this job:
 ========================================================
  
                  Total CPU time used (sec):      774.447
                            User time (sec):      773.870
                          System time (sec):        0.578
                         Elapsed time (sec):      777.027
  
                   Maximum memory used (kb):      355348.
                   Average memory used (kb):           0.
  
                          Minor page faults:       107201
                          Major page faults:            1
                 Voluntary context switches:         1705
