Pt                                      
           1
    11.214359    0.000000    0.000000
     5.607179    9.711920    0.000000
     0.000000    0.000000   31.445608
   Pt
  64
Direct configuration=     1
   0.08333331  0.33333334  0.39080566
   0.08333331  0.08333334  0.39080566
   0.33333331  0.33333334  0.39080566
   0.33333331  0.08333334  0.39080566
   0.41666661  0.16666668  0.46360189
   0.41666661  0.41666668  0.46360189
   0.16666661  0.16666669  0.46360189
   0.16666661  0.41666668  0.46360189
   0.24999992  0.00000003  0.53639811
   0.24999992  0.25000003  0.53639811
   0.49999992  0.00000003  0.53639811
   0.49999992  0.25000002  0.53639811
   0.08333322  0.33333337  0.60919434
   0.08333322  0.08333337  0.60919434
   0.33333322  0.33333337  0.60919434
   0.33333322  0.08333337  0.60919434
   0.08333331  0.83333334  0.39080566
   0.08333331  0.58333334  0.39080566
   0.33333331  0.83333334  0.39080566
   0.33333331  0.58333334  0.39080566
   0.41666661  0.66666668  0.46360189
   0.41666661  0.91666668  0.46360189
   0.16666661  0.66666669  0.46360189
   0.16666661  0.91666668  0.46360189
   0.24999992  0.50000003  0.53639811
   0.24999992  0.75000003  0.53639811
   0.49999992  0.50000003  0.53639811
   0.49999992  0.75000002  0.53639811
   0.08333322  0.83333337  0.60919434
   0.08333322  0.58333337  0.60919434
   0.33333322  0.83333337  0.60919434
   0.33333322  0.58333337  0.60919434
   0.58333331  0.33333334  0.39080566
   0.58333331  0.08333334  0.39080566
   0.83333331  0.33333334  0.39080566
   0.83333331  0.08333334  0.39080566
   0.91666661  0.16666668  0.46360189
   0.91666661  0.41666668  0.46360189
   0.66666661  0.16666669  0.46360189
   0.66666661  0.41666668  0.46360189
   0.74999992  0.00000003  0.53639811
   0.74999992  0.25000003  0.53639811
   0.99999992  0.00000003  0.53639811
   0.99999992  0.25000002  0.53639811
   0.58333322  0.33333337  0.60919434
   0.58333322  0.08333337  0.60919434
   0.83333322  0.33333337  0.60919434
   0.83333322  0.08333337  0.60919434
   0.58333331  0.83333334  0.39080566
   0.58333331  0.58333334  0.39080566
   0.83333331  0.83333334  0.39080566
   0.83333331  0.58333334  0.39080566
   0.91666661  0.66666668  0.46360189
   0.91666661  0.91666668  0.46360189
   0.66666661  0.66666669  0.46360189
   0.66666661  0.91666668  0.46360189
   0.74999992  0.50000003  0.53639811
   0.74999992  0.75000003  0.53639811
   0.99999992  0.50000003  0.53639811
   0.99999992  0.75000002  0.53639811
   0.58333322  0.83333337  0.60919434
   0.58333322  0.58333337  0.60919434
   0.83333322  0.83333337  0.60919434
   0.83333322  0.58333337  0.60919434
Direct configuration=     2
   0.08333331  0.33333334  0.39080566
   0.08333331  0.08333334  0.39080566
   0.33333331  0.33333334  0.39080566
   0.33333331  0.08333334  0.39080566
   0.41666661  0.16666668  0.46360189
   0.41666661  0.41666668  0.46360189
   0.16666661  0.16666669  0.46360189
   0.16666661  0.41666668  0.46360189
   0.24999990 -0.00000015  0.53611681
   0.24999986  0.25000007  0.53611688
   0.49999981  0.00000001  0.53611322
   0.49999972  0.25000019  0.53611688
   0.08332451  0.33335092  0.60930854
   0.08332454  0.08332462  0.60930843
   0.33333303  0.33333341  0.60931003
   0.33335071  0.08332465  0.60930844
   0.08333331  0.83333334  0.39080566
   0.08333331  0.58333334  0.39080566
   0.33333331  0.83333334  0.39080566
   0.33333331  0.58333334  0.39080566
   0.41666661  0.66666668  0.46360189
   0.41666661  0.91666668  0.46360189
   0.16666661  0.66666669  0.46360189
   0.16666661  0.91666668  0.46360189
   0.24999992  0.50000005  0.53611689
   0.25000001  0.75000024  0.53611685
   0.49999992  0.50000029  0.53611324
   0.49999964  0.75000012  0.53611685
   0.08332469  0.83335071  0.60930844
   0.08332451  0.58332463  0.60930850
   0.33333319  0.83333321  0.60930993
   0.33335068  0.58332475  0.60930843
   0.58333331  0.33333334  0.39080566
   0.58333331  0.08333334  0.39080566
   0.83333331  0.33333334  0.39080566
   0.83333331  0.08333334  0.39080566
   0.91666661  0.16666668  0.46360189
   0.91666661  0.41666668  0.46360189
   0.66666661  0.16666669  0.46360189
   0.66666661  0.41666668  0.46360189
   0.75000012 -0.00000016  0.53611688
   0.75000016  0.25000019  0.53611689
   0.00000021  0.00000005  0.53611320
   0.99999985  0.25000001  0.53611685
   0.58332443  0.33335110  0.60930849
   0.58332436  0.08332458  0.60930849
   0.83333314  0.33333339  0.60930998
   0.83335084  0.08332468  0.60930850
   0.58333331  0.83333334  0.39080566
   0.58333331  0.58333334  0.39080566
   0.83333331  0.83333334  0.39080566
   0.83333331  0.58333334  0.39080566
   0.91666661  0.66666668  0.46360189
   0.91666661  0.91666668  0.46360189
   0.66666661  0.66666669  0.46360189
   0.66666661  0.91666668  0.46360189
   0.75000000  0.49999987  0.53611689
   0.75000000  0.75000001  0.53611691
   0.99999998  0.50000001  0.53611325
   0.99999995  0.75000008  0.53611688
   0.58332451  0.83335080  0.60930845
   0.58332442  0.58332466  0.60930844
   0.83333323  0.83333310  0.60931001
   0.83335074  0.58332467  0.60930852
Direct configuration=     3
   0.08333331  0.33333334  0.39080566
   0.08333331  0.08333334  0.39080566
   0.33333331  0.33333334  0.39080566
   0.33333331  0.08333334  0.39080566
   0.41666661  0.16666668  0.46360189
   0.41666661  0.41666668  0.46360189
   0.16666661  0.16666669  0.46360189
   0.16666661  0.41666668  0.46360189
   0.24999990 -0.00000021  0.53602022
   0.24999984  0.25000009  0.53602031
   0.49999977  0.00000001  0.53601540
   0.49999965  0.25000025  0.53602031
   0.08332151  0.33335695  0.60934775
   0.08332155  0.08332161  0.60934761
   0.33333296  0.33333343  0.60934975
   0.33335671  0.08332165  0.60934763
   0.08333331  0.83333334  0.39080566
   0.08333331  0.58333334  0.39080566
   0.33333331  0.83333334  0.39080566
   0.33333331  0.58333334  0.39080566
   0.41666661  0.66666668  0.46360189
   0.41666661  0.91666668  0.46360189
   0.16666661  0.66666669  0.46360189
   0.16666661  0.91666668  0.46360189
   0.24999992  0.50000006  0.53602032
   0.25000004  0.75000031  0.53602027
   0.49999992  0.50000038  0.53601542
   0.49999955  0.75000015  0.53602027
   0.08332176  0.83335666  0.60934762
   0.08332152  0.58332164  0.60934770
   0.33333317  0.83333316  0.60934962
   0.33335668  0.58332179  0.60934761
   0.58333331  0.33333334  0.39080566
   0.58333331  0.08333334  0.39080566
   0.83333331  0.33333334  0.39080566
   0.83333331  0.08333334  0.39080566
   0.91666661  0.16666668  0.46360189
   0.91666661  0.41666668  0.46360189
   0.66666661  0.16666669  0.46360189
   0.66666661  0.41666668  0.46360189
   0.75000019 -0.00000022  0.53602031
   0.75000025  0.25000024  0.53602033
   0.00000031  0.00000006  0.53601536
   0.99999982  0.25000001  0.53602026
   0.58332141  0.33335719  0.60934769
   0.58332132  0.08332156  0.60934768
   0.83333311  0.33333340  0.60934969
   0.83335689  0.08332169  0.60934770
   0.58333331  0.83333334  0.39080566
   0.58333331  0.58333334  0.39080566
   0.83333331  0.83333334  0.39080566
   0.83333331  0.58333334  0.39080566
   0.91666661  0.66666668  0.46360189
   0.91666661  0.91666668  0.46360189
   0.66666661  0.66666669  0.46360189
   0.66666661  0.91666668  0.46360189
   0.75000002  0.49999981  0.53602032
   0.75000003  0.75000001  0.53602035
   0.00000000  0.50000001  0.53601543
   0.99999996  0.75000010  0.53602031
   0.58332152  0.83335678  0.60934763
   0.58332140  0.58332167  0.60934762
   0.83333324  0.83333300  0.60934973
   0.83335675  0.58332169  0.60934773
Direct configuration=     4
   0.08333331  0.33333334  0.39080566
   0.08333331  0.08333334  0.39080566
   0.33333331  0.33333334  0.39080566
   0.33333331  0.08333334  0.39080566
   0.41666661  0.16666668  0.46360189
   0.41666661  0.41666668  0.46360189
   0.16666661  0.16666669  0.46360189
   0.16666661  0.41666668  0.46360189
   0.24999864  0.00000335  0.53599483
   0.24999807  0.24999838  0.53599491
   0.49999930  0.00000012  0.53598700
   0.50000127  0.24999758  0.53599558
   0.08332124  0.33335546  0.60930542
   0.08332168  0.08332382  0.60930556
   0.33333192  0.33333135  0.60930722
   0.33335520  0.08332239  0.60930612
   0.08333331  0.83333334  0.39080566
   0.08333331  0.58333334  0.39080566
   0.33333331  0.83333334  0.39080566
   0.33333331  0.58333334  0.39080566
   0.41666661  0.66666668  0.46360189
   0.41666661  0.91666668  0.46360189
   0.16666661  0.66666669  0.46360189
   0.16666661  0.91666668  0.46360189
   0.24999809  0.50000002  0.53599586
   0.24999855  0.75000181  0.53599582
   0.50000168  0.49999972  0.53598769
   0.50000174  0.75000104  0.53599556
   0.08332048  0.83335810  0.60930760
   0.08331987  0.58332111  0.60930749
   0.33333308  0.83333567  0.60930690
   0.33335588  0.58332228  0.60930815
   0.58333331  0.33333334  0.39080566
   0.58333331  0.08333334  0.39080566
   0.83333331  0.33333334  0.39080566
   0.83333331  0.08333334  0.39080566
   0.91666661  0.16666668  0.46360189
   0.91666661  0.41666668  0.46360189
   0.66666661  0.16666669  0.46360189
   0.66666661  0.41666668  0.46360189
   0.74999931  0.00000082  0.53599549
   0.75000170  0.24999869  0.53599522
  -0.00000018  0.00000200  0.53598690
   0.00000182  0.24999953  0.53599450
   0.58332362  0.33335494  0.60930758
   0.58332157  0.08332060  0.60930761
   0.83333535  0.33333285  0.60930560
   0.83335689  0.08332216  0.60930705
   0.58333331  0.83333334  0.39080566
   0.58333331  0.58333334  0.39080566
   0.83333331  0.83333334  0.39080566
   0.83333331  0.58333334  0.39080566
   0.91666661  0.66666668  0.46360189
   0.91666661  0.91666668  0.46360189
   0.66666661  0.66666669  0.46360189
   0.66666661  0.91666668  0.46360189
   0.75000168  0.50000046  0.53599520
   0.74999927  0.74999924  0.53599549
  -0.00000067  0.49999870  0.53598693
   0.99999933  0.75000006  0.53599575
   0.58332207  0.83335670  0.60930714
   0.58332393  0.58332229  0.60930712
   0.83333207  0.83333299  0.60930770
   0.83335667  0.58332124  0.60930646
Direct configuration=     5
   0.08333331  0.33333334  0.39080566
   0.08333331  0.08333334  0.39080566
   0.33333331  0.33333334  0.39080566
   0.33333331  0.08333334  0.39080566
   0.41666661  0.16666668  0.46360189
   0.41666661  0.41666668  0.46360189
   0.16666661  0.16666669  0.46360189
   0.16666661  0.41666668  0.46360189
   0.24999486  0.00001400  0.53591868
   0.24999276  0.24999324  0.53591871
   0.49999786  0.00000045  0.53590183
   0.50000614  0.24998957  0.53592140
   0.08332042  0.33335097  0.60917843
   0.08332205  0.08333045  0.60917942
   0.33332879  0.33332511  0.60917963
   0.33335065  0.08332459  0.60918161
   0.08333331  0.83333334  0.39080566
   0.08333331  0.58333334  0.39080566
   0.33333331  0.83333334  0.39080566
   0.33333331  0.58333334  0.39080566
   0.41666661  0.66666668  0.46360189
   0.41666661  0.91666668  0.46360189
   0.16666661  0.66666669  0.46360189
   0.16666661  0.91666668  0.46360189
   0.24999257  0.49999987  0.53592250
   0.24999406  0.75000629  0.53592247
   0.50000697  0.49999774  0.53590451
   0.50000831  0.75000368  0.53592141
   0.08331666  0.83336241  0.60918753
   0.08331494  0.58331952  0.60918687
   0.33333280  0.83334323  0.60917876
   0.33335347  0.58332375  0.60918979
   0.58333331  0.33333334  0.39080566
   0.58333331  0.08333334  0.39080566
   0.83333331  0.33333334  0.39080566
   0.83333331  0.08333334  0.39080566
   0.91666661  0.16666668  0.46360189
   0.91666661  0.41666668  0.46360189
   0.66666661  0.16666669  0.46360189
   0.66666661  0.41666668  0.46360189
   0.74999668  0.00000396  0.53592104
   0.75000608  0.24999403  0.53591988
  -0.00000168  0.00000783  0.53590151
   0.00000781  0.24999807  0.53591722
   0.58333024  0.33334816  0.60918727
   0.58332233  0.08331770  0.60918740
   0.83334206  0.33333118  0.60917330
   0.83335688  0.08332355  0.60918509
   0.58333331  0.83333334  0.39080566
   0.58333331  0.58333334  0.39080566
   0.83333331  0.83333334  0.39080566
   0.83333331  0.58333334  0.39080566
   0.91666661  0.66666668  0.46360189
   0.91666661  0.91666668  0.46360189
   0.66666661  0.66666669  0.46360189
   0.66666661  0.91666668  0.46360189
   0.75000665  0.50000240  0.53591984
   0.74999700  0.74999692  0.53592090
  -0.00000270  0.49999479  0.53590144
   0.99999745  0.74999994  0.53592206
   0.58332372  0.83335643  0.60918567
   0.58333153  0.58332417  0.60918562
   0.83332856  0.83333293  0.60918163
   0.83335645  0.58331989  0.60918263
Direct configuration=     6
   0.08333331  0.33333334  0.39080566
   0.08333331  0.08333334  0.39080566
   0.33333331  0.33333334  0.39080566
   0.33333331  0.08333334  0.39080566
   0.41666661  0.16666668  0.46360189
   0.41666661  0.41666668  0.46360189
   0.16666661  0.16666669  0.46360189
   0.16666661  0.41666668  0.46360189
   0.24998731  0.00003532  0.53576638
   0.24998215  0.24998297  0.53576632
   0.49999500  0.00000111  0.53573147
   0.50001588  0.24997355  0.53577303
   0.08331878  0.33334201  0.60892444
   0.08332280  0.08334372  0.60892713
   0.33332254  0.33331264  0.60892445
   0.33334156  0.08332900  0.60893259
   0.08333331  0.83333334  0.39080566
   0.08333331  0.58333334  0.39080566
   0.33333331  0.83333334  0.39080566
   0.33333331  0.58333334  0.39080566
   0.41666661  0.66666668  0.46360189
   0.41666661  0.91666668  0.46360189
   0.16666661  0.66666669  0.46360189
   0.16666661  0.91666668  0.46360189
   0.24998155  0.49999958  0.53577576
   0.24998510  0.75001526  0.53577576
   0.50001754  0.49999379  0.53573815
   0.50002146  0.75000898  0.53577313
   0.08330903  0.83337104  0.60894740
   0.08330507  0.58331635  0.60894562
   0.33333223  0.83335833  0.60892248
   0.33334864  0.58332671  0.60895307
   0.58333331  0.33333334  0.39080566
   0.58333331  0.08333334  0.39080566
   0.83333331  0.33333334  0.39080566
   0.83333331  0.08333334  0.39080566
   0.91666661  0.16666668  0.46360189
   0.91666661  0.41666668  0.46360189
   0.66666661  0.16666669  0.46360189
   0.66666661  0.41666668  0.46360189
   0.74999142  0.00001023  0.53577214
   0.75001483  0.24998471  0.53576922
  -0.00000468  0.00001949  0.53573073
   0.00001980  0.24999517  0.53576265
   0.58334349  0.33333462  0.60894665
   0.58332385  0.08331192  0.60894697
   0.83335548  0.33332785  0.60890871
   0.83335685  0.08332635  0.60894118
   0.58333331  0.83333334  0.39080566
   0.58333331  0.58333334  0.39080566
   0.83333331  0.83333334  0.39080566
   0.83333331  0.58333334  0.39080566
   0.91666661  0.66666668  0.46360189
   0.91666661  0.91666668  0.46360189
   0.66666661  0.66666669  0.46360189
   0.66666661  0.91666668  0.46360189
   0.75001659  0.50000627  0.53576912
   0.74999244  0.74999229  0.53577173
  -0.00000676  0.49998697  0.53573046
   0.99999367  0.74999970  0.53577467
   0.58332700  0.83335589  0.60894273
   0.58334674  0.58332792  0.60894262
   0.83332155  0.83333282  0.60892950
   0.83335600  0.58331720  0.60893499
Direct configuration=     7
   0.08333331  0.33333334  0.39080566
   0.08333331  0.08333334  0.39080566
   0.33333331  0.33333334  0.39080566
   0.33333331  0.08333334  0.39080566
   0.41666661  0.16666668  0.46360189
   0.41666661  0.41666668  0.46360189
   0.16666661  0.16666669  0.46360189
   0.16666661  0.41666668  0.46360189
   0.24998944  0.00002932  0.53580926
   0.24998514  0.24998587  0.53580923
   0.49999581  0.00000092  0.53577944
   0.50001314  0.24997806  0.53581480
   0.08331924  0.33334453  0.60899595
   0.08332259  0.08333999  0.60899816
   0.33332430  0.33331615  0.60899630
   0.33334412  0.08332776  0.60900271
   0.08333331  0.83333334  0.39080566
   0.08333331  0.58333334  0.39080566
   0.33333331  0.83333334  0.39080566
   0.33333331  0.58333334  0.39080566
   0.41666661  0.66666668  0.46360189
   0.41666661  0.91666668  0.46360189
   0.16666661  0.66666669  0.46360189
   0.16666661  0.91666668  0.46360189
   0.24998465  0.49999966  0.53581707
   0.24998762  0.75001274  0.53581707
   0.50001456  0.49999491  0.53578499
   0.50001776  0.75000749  0.53581488
   0.08331118  0.83336861  0.60901501
   0.08330785  0.58331725  0.60901354
   0.33333239  0.83335408  0.60899464
   0.33335000  0.58332588  0.60901972
   0.58333331  0.33333334  0.39080566
   0.58333331  0.08333334  0.39080566
   0.83333331  0.33333334  0.39080566
   0.83333331  0.08333334  0.39080566
   0.91666661  0.16666668  0.46360189
   0.91666661  0.41666668  0.46360189
   0.66666661  0.16666669  0.46360189
   0.66666661  0.41666668  0.46360189
   0.74999290  0.00000847  0.53581406
   0.75001237  0.24998733  0.53581164
  -0.00000383  0.00001621  0.53577881
   0.00001643  0.24999598  0.53580617
   0.58333976  0.33333844  0.60901440
   0.58332342  0.08331355  0.60901466
   0.83335170  0.33332879  0.60898321
   0.83335686  0.08332556  0.60900986
   0.58333331  0.83333334  0.39080566
   0.58333331  0.58333334  0.39080566
   0.83333331  0.83333334  0.39080566
   0.83333331  0.58333334  0.39080566
   0.91666661  0.66666668  0.46360189
   0.91666661  0.91666668  0.46360189
   0.66666661  0.66666669  0.46360189
   0.66666661  0.91666668  0.46360189
   0.75001379  0.50000518  0.53581155
   0.74999372  0.74999360  0.53581373
  -0.00000561  0.49998917  0.53577860
   0.99999473  0.74999977  0.53581617
   0.58332608  0.83335604  0.60901113
   0.58334246  0.58332686  0.60901104
   0.83332353  0.83333285  0.60900049
   0.83335613  0.58331796  0.60900472
Direct configuration=     8
   0.08333331  0.33333334  0.39080566
   0.08333331  0.08333334  0.39080566
   0.33333331  0.33333334  0.39080566
   0.33333331  0.08333334  0.39080566
   0.41666661  0.16666668  0.46360189
   0.41666661  0.41666668  0.46360189
   0.16666661  0.16666669  0.46360189
   0.16666661  0.41666668  0.46360189
   0.25000022  0.00000387  0.53571669
   0.25000296  0.24999690  0.53571621
   0.50000545  0.00000067  0.53571454
   0.50000846  0.24999506  0.53572713
   0.08330153  0.33339417  0.60901333
   0.08329955  0.08330632  0.60901258
   0.33333358  0.33332325  0.60902174
   0.33339885  0.08330253  0.60901671
   0.08333331  0.83333334  0.39080566
   0.08333331  0.58333334  0.39080566
   0.33333331  0.83333334  0.39080566
   0.33333331  0.58333334  0.39080566
   0.41666661  0.66666668  0.46360189
   0.41666661  0.91666668  0.46360189
   0.16666661  0.66666669  0.46360189
   0.16666661  0.91666668  0.46360189
   0.25001677  0.50000801  0.53572453
   0.24999602  0.74999404  0.53572857
   0.49999809  0.49999921  0.53572179
   0.49998900  0.74999753  0.53571930
   0.08329177  0.83340651  0.60902076
   0.08329389  0.58330040  0.60902119
   0.33333161  0.83334349  0.60902198
   0.33339661  0.58329983  0.60902081
   0.58333331  0.33333334  0.39080566
   0.58333331  0.08333334  0.39080566
   0.83333331  0.33333334  0.39080566
   0.83333331  0.08333334  0.39080566
   0.91666661  0.16666668  0.46360189
   0.91666661  0.41666668  0.46360189
   0.66666661  0.16666669  0.46360189
   0.66666661  0.41666668  0.46360189
   0.74999511  0.00000567  0.53572588
   0.74999236  0.24999471  0.53572124
  -0.00000230 -0.00000327  0.53571391
   0.00000599  0.24999624  0.53571068
   0.58330768  0.33338772  0.60901857
   0.58330217  0.08329618  0.60902245
   0.83333956  0.33332836  0.60901643
   0.83339729  0.08329999  0.60901866
   0.58333331  0.83333334  0.39080566
   0.58333331  0.58333334  0.39080566
   0.83333331  0.83333334  0.39080566
   0.83333331  0.58333334  0.39080566
   0.91666661  0.66666668  0.46360189
   0.91666661  0.91666668  0.46360189
   0.66666661  0.66666669  0.46360189
   0.66666661  0.91666668  0.46360189
   0.74999333  0.50001001  0.53571755
   0.74999664  0.75000239  0.53572202
   0.00000062  0.50000629  0.53570989
   0.00000480  0.74999842  0.53572738
   0.58330268  0.83340498  0.60902333
   0.58330823  0.58330144  0.60901931
   0.83332682  0.83333734  0.60902823
   0.83339984  0.58330195  0.60901993
Direct configuration=     9
   0.08333331  0.33333334  0.39080566
   0.08333331  0.08333334  0.39080566
   0.33333331  0.33333334  0.39080566
   0.33333331  0.08333334  0.39080566
   0.41666661  0.16666668  0.46360189
   0.41666661  0.41666668  0.46360189
   0.16666661  0.16666669  0.46360189
   0.16666661  0.41666668  0.46360189
   0.24999781  0.00000956  0.53573740
   0.24999897  0.24999443  0.53573702
   0.50000329  0.00000073  0.53572906
   0.50000951  0.24999126  0.53574674
   0.08330549  0.33338307  0.60900944
   0.08330470  0.08331385  0.60900936
   0.33333150  0.33332166  0.60901605
   0.33338661  0.08330818  0.60901357
   0.08333331  0.83333334  0.39080566
   0.08333331  0.58333334  0.39080566
   0.33333331  0.83333334  0.39080566
   0.33333331  0.58333334  0.39080566
   0.41666661  0.66666668  0.46360189
   0.41666661  0.91666668  0.46360189
   0.16666661  0.66666669  0.46360189
   0.16666661  0.91666668  0.46360189
   0.25000958  0.50000614  0.53574523
   0.24999414  0.74999823  0.53574837
   0.50000177  0.49999825  0.53573593
   0.49999543  0.74999976  0.53574068
   0.08329611  0.83339803  0.60901947
   0.08329701  0.58330417  0.60901948
   0.33333178  0.83334586  0.60901586
   0.33338618  0.58330566  0.60902056
   0.58333331  0.33333334  0.39080566
   0.58333331  0.08333334  0.39080566
   0.83333331  0.33333334  0.39080566
   0.83333331  0.08333334  0.39080566
   0.91666661  0.16666668  0.46360189
   0.91666661  0.41666668  0.46360189
   0.66666661  0.16666669  0.46360189
   0.66666661  0.41666668  0.46360189
   0.74999462  0.00000630  0.53574561
   0.74999684  0.24999306  0.53574147
  -0.00000264  0.00000109  0.53572843
   0.00000833  0.24999618  0.53573205
   0.58331486  0.33337670  0.60901764
   0.58330693  0.08330007  0.60902071
   0.83334227  0.33332846  0.60900900
   0.83338824  0.08330571  0.60901669
   0.58333331  0.83333334  0.39080566
   0.58333331  0.58333334  0.39080566
   0.83333331  0.83333334  0.39080566
   0.83333331  0.58333334  0.39080566
   0.91666661  0.66666668  0.46360189
   0.91666661  0.91666668  0.46360189
   0.66666661  0.66666669  0.46360189
   0.66666661  0.91666668  0.46360189
   0.74999791  0.50000893  0.53573858
   0.74999599  0.75000042  0.53574253
  -0.00000077  0.50000246  0.53572526
   0.00000255  0.74999872  0.53574724
   0.58330792  0.83339403  0.60902060
   0.58331589  0.58330712  0.60901746
   0.83332608  0.83333633  0.60902203
   0.83339006  0.58330553  0.60901653
