
     Program PWSCF v.6.7MaX starts on 12Jun2023 at 18:51:22 

     This program is part of the open-source Quantum ESPRESSO suite
     for quantum simulation of materials; please cite
         "P. Giannozzi et al., J. Phys.:Condens. Matter 21 395502 (2009);
         "P. Giannozzi et al., J. Phys.:Condens. Matter 29 465901 (2017);
          URL http://www.quantum-espresso.org", 
     in publications or presentations arising from this work. More details at
     http://www.quantum-espresso.org/quote

     Parallel version (MPI), running on     6 processors

     MPI processes distributed on     1 nodes
     R & G space division:  proc/nbgrp/npool/nimage =       6
     Waiting for input...
     Reading input from standard input

     Current dimensions of program PWSCF are:
     Max number of different atomic species (ntypx) = 10
     Max number of k-points (npk) =  40000
     Max angular momentum in pseudopotentials (lmaxx) =  3
     file Al.pbe-n-kjpaw_psl.1.0.0.UPF: wavefunction(s)  3S 3P renormalized

     Subspace diagonalization in iterative solution of the eigenvalue problem:
     one sub-group per band group will be used
     scalapack distributed-memory algorithm (size of sub-group:  2*  2 procs)

     Found symmetry operation: I + ( -0.5000  0.0000  0.0000)
     This is a supercell, fractional translations are disabled
     Message from routine setup:
     using ibrav=0 with symmetry is DISCOURAGED, use correct ibrav instead

     Parallelization info
     --------------------
     sticks:   dense  smooth     PW     G-vecs:    dense   smooth      PW
     Min         324     159     46                43552    15357    2359
     Max         325     160     48                43563    15378    2364
     Sum        1945     955    283               261335    92165   14171



     bravais-lattice index     =            0
     lattice parameter (alat)  =      10.8235  a.u.
     unit-cell volume          =    4158.6629 (a.u.)^3
     number of atoms/cell      =           24
     number of atomic types    =            1
     number of electrons       =        72.00
     number of Kohn-Sham states=           43
     kinetic-energy cutoff     =      30.0000  Ry
     charge density cutoff     =     240.0000  Ry
     scf convergence threshold =      1.0E-04
     mixing beta               =       0.7000
     number of iterations used =            8  plain     mixing
     energy convergence thresh.=      1.0E-04
     force convergence thresh. =      1.0E-01
     Exchange-correlation= SLA  PW   PBX  PBC
                           (   1   4   3   4   0   0   0)
     nstep                     =           50


     celldm(1)=  10.823529  celldm(2)=   0.000000  celldm(3)=   0.000000
     celldm(4)=   0.000000  celldm(5)=   0.000000  celldm(6)=   0.000000

     crystal axes: (cart. coord. in units of alat)
               a(1) = (   1.000000   0.000000   0.000000 )  
               a(2) = (   0.500000   0.866025   0.000000 )  
               a(3) = (   0.000000   0.000000   3.787184 )  

     reciprocal axes: (cart. coord. in units 2 pi/alat)
               b(1) = (  1.000000 -0.577350  0.000000 )  
               b(2) = (  0.000000  1.154701  0.000000 )  
               b(3) = (  0.000000  0.000000  0.264048 )  


     PseudoPot. # 1 for Al read from file:
     /home/mini21k/QE/Potential/Al.pbe-n-kjpaw_psl.1.0.0.UPF
     MD5 check sum: cfc449ca30b5f3223ec38ddd88ac046d
     Pseudo is Projector augmented-wave + core cor, Zval =  3.0
     Generated using "atomic" code by A. Dal Corso  v.5.1
     Shape of augmentation charge: PSQ
     Using radial grid of 1135 points,  6 beta functions with: 
                l(1) =   0
                l(2) =   0
                l(3) =   1
                l(4) =   1
                l(5) =   2
                l(6) =   2
     Q(r) pseudized with 0 coefficients 


     atomic species   valence    mass     pseudopotential
        Al             3.00    26.98154     Al( 1.00)

      6 Sym. Ops. (no inversion) found



   Cartesian axes

     site n.     atom                  positions (alat units)
         1           Al  tau(   1) = (   0.2500000   0.1443376   0.0000000  )
         2           Al  tau(   2) = (   0.7500000   0.1443376   0.0000000  )
         3           Al  tau(   3) = (   0.5000000   0.5773503   0.0000000  )
         4           Al  tau(   4) = (   1.0000000   0.5773503   0.0000000  )
         5           Al  tau(   5) = (   0.0000000   0.2886751   0.4082483  )
         6           Al  tau(   6) = (   0.5000000   0.2886751   0.4082483  )
         7           Al  tau(   7) = (   0.2500000   0.7216878   0.4082483  )
         8           Al  tau(   8) = (   0.7500000   0.7216878   0.4082483  )
         9           Al  tau(   9) = (   0.0000000   0.0000000   0.8164966  )
        10           Al  tau(  10) = (   0.5000000   0.0000000   0.8164966  )
        11           Al  tau(  11) = (   0.2500000   0.4330127   0.8164966  )
        12           Al  tau(  12) = (   0.7500000   0.4330127   0.8164966  )
        13           Al  tau(  13) = (   0.2500000   0.1443376   1.2247449  )
        14           Al  tau(  14) = (   0.7500000   0.1443376   1.2247449  )
        15           Al  tau(  15) = (   0.5000000   0.5773503   1.2247449  )
        16           Al  tau(  16) = (   1.0000000   0.5773503   1.2247449  )
        17           Al  tau(  17) = (   0.0000000   0.2886751   1.6329932  )
        18           Al  tau(  18) = (   0.5000000   0.2886751   1.6329932  )
        19           Al  tau(  19) = (   0.2500000   0.7216878   1.6329932  )
        20           Al  tau(  20) = (   0.7500000   0.7216878   1.6329932  )
        21           Al  tau(  21) = (   0.0000000   0.0000000   2.0412415  )
        22           Al  tau(  22) = (   0.5000000   0.0000000   2.0412415  )
        23           Al  tau(  23) = (   0.2500000   0.4330127   2.0412415  )
        24           Al  tau(  24) = (   0.7500000   0.4330127   2.0412415  )

     number of k points=     3  Gaussian smearing, width (Ry)=  0.0030
                       cart. coord. in units 2pi/alat
        k(    1) = (   0.0000000   0.0000000   0.0000000), wk =   0.2222222
        k(    2) = (   0.0000000   0.3849002   0.0000000), wk =   1.3333333
        k(    3) = (   0.3333333  -0.5773503   0.0000000), wk =   0.4444444

     Dense  grid:   261335 G-vectors     FFT dimensions: (  54,  54, 216)

     Smooth grid:    92165 G-vectors     FFT dimensions: (  40,  40, 144)

     Estimated max dynamical RAM per process >     214.64 MB

     Estimated total dynamical RAM >       1.26 GB

     Initial potential from superposition of free atoms

     starting charge   71.94503, renormalised to   72.00000
     Starting wfcs are   96 randomized atomic wfcs
     Checking if some PAW data can be deallocated... 

     total cpu time spent up to now is        3.9 secs

     Self-consistent Calculation

     iteration #  1     ecut=    30.00 Ry     beta= 0.70
     Davidson diagonalization with overlap
     ethr =  1.00E-02,  avg # of iterations =  3.7

     total cpu time spent up to now is        8.9 secs

     total energy              =    -946.82828142 Ry
     estimated scf accuracy    <       1.40468730 Ry

     iteration #  2     ecut=    30.00 Ry     beta= 0.70
     Davidson diagonalization with overlap
     ethr =  1.95E-03,  avg # of iterations = 17.3

     total cpu time spent up to now is       18.9 secs

     total energy              =    -932.98835437 Ry
     estimated scf accuracy    <     384.43304193 Ry

     iteration #  3     ecut=    30.00 Ry     beta= 0.70
     Davidson diagonalization with overlap
     ethr =  1.95E-03,  avg # of iterations = 13.3

     total cpu time spent up to now is       29.2 secs

     total energy              =    -947.80883324 Ry
     estimated scf accuracy    <       0.64898824 Ry

     iteration #  4     ecut=    30.00 Ry     beta= 0.70
     Davidson diagonalization with overlap
     ethr =  9.01E-04,  avg # of iterations =  2.7

     total cpu time spent up to now is       34.3 secs

     total energy              =    -947.83828882 Ry
     estimated scf accuracy    <       0.67172920 Ry

     iteration #  5     ecut=    30.00 Ry     beta= 0.70
     Davidson diagonalization with overlap
     ethr =  9.01E-04,  avg # of iterations =  4.7

     total cpu time spent up to now is       39.1 secs

     total energy              =    -947.67730786 Ry
     estimated scf accuracy    <       9.30623119 Ry

     iteration #  6     ecut=    30.00 Ry     beta= 0.70
     Davidson diagonalization with overlap
     ethr =  9.01E-04,  avg # of iterations =  4.0

     total cpu time spent up to now is       43.5 secs

     total energy              =    -947.88479099 Ry
     estimated scf accuracy    <       0.40972376 Ry

     iteration #  7     ecut=    30.00 Ry     beta= 0.70
     Davidson diagonalization with overlap
     ethr =  5.69E-04,  avg # of iterations =  1.0

     total cpu time spent up to now is       47.8 secs

     total energy              =    -947.88825289 Ry
     estimated scf accuracy    <       0.11086221 Ry

     iteration #  8     ecut=    30.00 Ry     beta= 0.70
     Davidson diagonalization with overlap
     ethr =  1.54E-04,  avg # of iterations =  2.7

     total cpu time spent up to now is       52.2 secs

     total energy              =    -947.89282817 Ry
     estimated scf accuracy    <       0.03377176 Ry

     iteration #  9     ecut=    30.00 Ry     beta= 0.70
     Davidson diagonalization with overlap
     ethr =  4.69E-05,  avg # of iterations =  9.7

     total cpu time spent up to now is       57.4 secs

     total energy              =    -947.89487578 Ry
     estimated scf accuracy    <       0.02104147 Ry

     iteration # 10     ecut=    30.00 Ry     beta= 0.70
     Davidson diagonalization with overlap
     ethr =  2.92E-05,  avg # of iterations =  1.7

     total cpu time spent up to now is       61.8 secs

     total energy              =    -947.89376769 Ry
     estimated scf accuracy    <       0.00718939 Ry

     iteration # 11     ecut=    30.00 Ry     beta= 0.70
     Davidson diagonalization with overlap
     ethr =  9.99E-06,  avg # of iterations =  4.3

     total cpu time spent up to now is       66.5 secs

     total energy              =    -947.89451528 Ry
     estimated scf accuracy    <       0.00998052 Ry

     iteration # 12     ecut=    30.00 Ry     beta= 0.70
     Davidson diagonalization with overlap
     ethr =  9.99E-06,  avg # of iterations =  1.7

     total cpu time spent up to now is       70.7 secs

     total energy              =    -947.89417295 Ry
     estimated scf accuracy    <       0.00821523 Ry

     iteration # 13     ecut=    30.00 Ry     beta= 0.70
     Davidson diagonalization with overlap
     ethr =  9.99E-06,  avg # of iterations =  1.0

     total cpu time spent up to now is       75.0 secs

     total energy              =    -947.89416745 Ry
     estimated scf accuracy    <       0.00174614 Ry

     iteration # 14     ecut=    30.00 Ry     beta= 0.70
     Davidson diagonalization with overlap
     ethr =  2.43E-06,  avg # of iterations =  6.3

     total cpu time spent up to now is       80.0 secs

     total energy              =    -947.89436756 Ry
     estimated scf accuracy    <       0.00013765 Ry

     iteration # 15     ecut=    30.00 Ry     beta= 0.70
     Davidson diagonalization with overlap
     ethr =  1.91E-07,  avg # of iterations =  8.0

     total cpu time spent up to now is       85.4 secs

     total energy              =    -947.89442087 Ry
     estimated scf accuracy    <       0.00098856 Ry

     iteration # 16     ecut=    30.00 Ry     beta= 0.70
     Davidson diagonalization with overlap
     ethr =  1.91E-07,  avg # of iterations =  1.0

     total cpu time spent up to now is       89.6 secs

     total energy              =    -947.89432240 Ry
     estimated scf accuracy    <       0.00095930 Ry

     iteration # 17     ecut=    30.00 Ry     beta= 0.70
     Davidson diagonalization with overlap
     ethr =  1.91E-07,  avg # of iterations =  3.3

     total cpu time spent up to now is       94.2 secs

     End of self-consistent calculation

          k = 0.0000 0.0000 0.0000 ( 11579 PWs)   bands (ev):

    -7.1752  -6.6490  -5.8486  -4.7221  -3.3734  -1.6942  -1.2912  -1.2910
    -1.2910  -1.2889  -1.2889  -1.2888  -0.8190  -0.8190  -0.8189  -0.7493
    -0.7492  -0.7492  -0.0690  -0.0689  -0.0689   0.0047   0.0047   0.0047
     0.0312   0.8178   0.8180   0.8180   1.3235   1.3236   1.3236   2.0999
     2.3967   2.3967   2.3968   2.6509   2.6509   2.6510   4.1098   4.1100
     4.1106   4.1708   4.1786

          k = 0.0000 0.3849 0.0000 ( 11530 PWs)   bands (ev):

    -6.5085  -5.9843  -5.1870  -4.5272  -4.0644  -4.0091  -3.2217  -2.7202
    -2.5737  -2.5736  -2.1127  -2.0627  -2.0627  -1.2880  -1.2880  -1.0417
    -0.7877  -0.2028  -0.2027   0.6562   0.8577   1.0285   1.0286   1.2741
     1.2741   1.6829   1.6829   2.4257   2.4257   2.4512   2.7210   3.0436
     3.0436   3.1368   3.6937   3.6983   3.6983   4.3881   4.3881   4.4409
     4.7764   4.8008   4.8276

          k = 0.3333-0.5774 0.0000 ( 11556 PWs)   bands (ev):

    -5.1848  -5.1845  -5.1844  -4.6644  -4.6643  -4.6642  -3.8736  -3.8735
    -3.8734  -2.7594  -2.7594  -2.7593  -1.4262  -1.4262  -1.4260   0.2419
     0.2419   0.2420   0.6098   0.6099   0.6124   1.0641   1.0643   1.1969
     1.7330   1.8782   1.8783   1.8953   1.8953   1.8954   2.4452   3.1292
     3.1294   3.8977   3.8977   3.8979   4.5293   4.5294   4.7753   5.6219
     5.6221   5.6223   6.1052

     the Fermi energy is     3.7321 ev

!    total energy              =    -947.89437042 Ry

     total all-electron energy =    -11655.321128 Ry
     estimated scf accuracy    <       0.00000831 Ry
     smearing contrib. (-TS)   =      -0.00160287 Ry
     internal energy E=F+TS    =    -947.89276755 Ry

     The total energy is F=E-TS. E is the sum of the following terms:
     one-electron contribution =    -479.15968223 Ry
     hartree contribution      =     266.75305052 Ry
     xc contribution           =     -61.46383141 Ry
     ewald contribution        =     158.27477288 Ry
     one-center paw contrib.   =    -832.29707731 Ry

     convergence has been achieved in  17 iterations

     Forces acting on atoms (cartesian axes, Ry/au):

     atom    1 type  1   force =     0.00000857    0.00000495    0.00840205
     atom    2 type  1   force =    -0.00000857    0.00000495    0.00840205
     atom    3 type  1   force =     0.00000000   -0.00000989    0.00840205
     atom    4 type  1   force =     0.00000000    0.00000000    0.00839296
     atom    5 type  1   force =     0.00000000   -0.00000284    0.00184750
     atom    6 type  1   force =     0.00000000    0.00000000    0.00182252
     atom    7 type  1   force =     0.00000246    0.00000142    0.00184750
     atom    8 type  1   force =    -0.00000246    0.00000142    0.00184750
     atom    9 type  1   force =     0.00000000    0.00000000   -0.01021621
     atom   10 type  1   force =     0.00000000   -0.00000608   -0.01018167
     atom   11 type  1   force =    -0.00000526    0.00000304   -0.01018167
     atom   12 type  1   force =     0.00000526    0.00000304   -0.01018167
     atom   13 type  1   force =    -0.00001298   -0.00000750    0.01019826
     atom   14 type  1   force =     0.00001298   -0.00000750    0.01019826
     atom   15 type  1   force =     0.00000000    0.00001499    0.01019826
     atom   16 type  1   force =    -0.00000000   -0.00000000    0.01019193
     atom   17 type  1   force =     0.00000000   -0.00000131   -0.00187018
     atom   18 type  1   force =     0.00000000    0.00000000   -0.00184468
     atom   19 type  1   force =     0.00000113    0.00000065   -0.00187018
     atom   20 type  1   force =    -0.00000113    0.00000065   -0.00187018
     atom   21 type  1   force =     0.00000000    0.00000000   -0.00835659
     atom   22 type  1   force =     0.00000000    0.00000488   -0.00839259
     atom   23 type  1   force =     0.00000423   -0.00000244   -0.00839259
     atom   24 type  1   force =    -0.00000423   -0.00000244   -0.00839259

     Total force =     0.033762     Total SCF correction =     0.003661
     SCF correction compared to forces is large: reduce conv_thr to get better values

     BFGS Geometry Optimization
     Energy error            =      0.0E+00
     Gradient error          =      1.0E-02

     bfgs converged in   1 scf cycles and   0 bfgs steps
     (criteria: energy <  1.0E-04 Ry, force <  1.0E-01 Ry/Bohr)

     End of BFGS Geometry Optimization

     Final energy   =    -947.8943704225 Ry
Begin final coordinates

ATOMIC_POSITIONS (angstrom)
Al            1.4318912319        0.8267027882        0.0000000000    0   0   0
Al            4.2956736957        0.8267027882        0.0000000000    0   0   0
Al            2.8637824638        3.3068111528        0.0000000000    0   0   0
Al            5.7275649276        3.3068111528        0.0000000000    0   0   0
Al            0.0000000000        1.6534055764        2.3382685902
Al            2.8637824638        1.6534055764        2.3382685902
Al            1.4318912319        4.1335139409        2.3382685902
Al            4.2956736957        4.1335139409        2.3382685902
Al            0.0000000000        0.0000000000        4.6765371804
Al            2.8637824638        0.0000000000        4.6765371804
Al            1.4318912319        2.4801083646        4.6765371804
Al            4.2956736957        2.4801083646        4.6765371804
Al            1.4318912319        0.8267027882        7.0148057707
Al            4.2956736957        0.8267027882        7.0148057707
Al            2.8637824638        3.3068111528        7.0148057707
Al            5.7275649276        3.3068111528        7.0148057707
Al            0.0000000000        1.6534055764        9.3530743609
Al            2.8637824638        1.6534055764        9.3530743609
Al            1.4318912319        4.1335139409        9.3530743609
Al            4.2956736957        4.1335139409        9.3530743609
Al            0.0000000000        0.0000000000       11.6913429511
Al            2.8637824638        0.0000000000       11.6913429511
Al            1.4318912319        2.4801083646       11.6913429511
Al            4.2956736957        2.4801083646       11.6913429511
End final coordinates



     Writing output data file ./output/pwscf.save/

     init_run     :      3.66s CPU      3.75s WALL (       1 calls)
     electrons    :     88.33s CPU     90.32s WALL (       1 calls)
     forces       :      2.98s CPU      3.07s WALL (       1 calls)

     Called by init_run:
     wfcinit      :      2.11s CPU      2.11s WALL (       1 calls)
     potinit      :      0.70s CPU      0.71s WALL (       1 calls)
     hinit0       :      0.28s CPU      0.28s WALL (       1 calls)

     Called by electrons:
     c_bands      :     52.83s CPU     53.03s WALL (      17 calls)
     sum_band     :     16.26s CPU     17.17s WALL (      17 calls)
     v_of_rho     :      1.38s CPU      1.44s WALL (      18 calls)
     newd         :      9.66s CPU     10.55s WALL (      18 calls)
     PAW_pot      :      8.81s CPU      8.81s WALL (      18 calls)
     mix_rho      :      0.30s CPU      0.31s WALL (      17 calls)

     Called by c_bands:
     init_us_2    :      0.75s CPU      0.75s WALL (     108 calls)
     cegterg      :     50.66s CPU     50.85s WALL (      51 calls)

     Called by *egterg:
     cdiaghg      :      0.79s CPU      0.79s WALL (     310 calls)
     h_psi        :     30.39s CPU     30.57s WALL (     313 calls)
     s_psi        :     11.58s CPU     11.58s WALL (     313 calls)
     g_psi        :      0.07s CPU      0.07s WALL (     259 calls)

     Called by h_psi:
     h_psi:calbec :     12.96s CPU     12.99s WALL (     313 calls)
     vloc_psi     :      5.22s CPU      5.36s WALL (     313 calls)
     add_vuspsi   :     12.16s CPU     12.16s WALL (     313 calls)

     General routines
     calbec       :     18.02s CPU     18.07s WALL (     376 calls)
     fft          :      1.03s CPU      1.07s WALL (     243 calls)
     ffts         :      0.03s CPU      0.04s WALL (      35 calls)
     fftw         :      5.36s CPU      5.51s WALL (   15595 calls)
     interpolate  :      0.09s CPU      0.10s WALL (      18 calls)

     Parallel routines
     fft_scatt_xy :      0.77s CPU      0.80s WALL (   15873 calls)
     fft_scatt_yz :      2.50s CPU      2.56s WALL (   15873 calls)

     PWSCF        :   1m35.12s CPU   1m37.32s WALL


   This run was terminated on:  18:53: 0  12Jun2023            

=------------------------------------------------------------------------------=
   JOB DONE.
=------------------------------------------------------------------------------=
