
     Program PWSCF v.6.7MaX starts on 12Jun2023 at 18:24:30 

     This program is part of the open-source Quantum ESPRESSO suite
     for quantum simulation of materials; please cite
         "P. Giannozzi et al., J. Phys.:Condens. Matter 21 395502 (2009);
         "P. Giannozzi et al., J. Phys.:Condens. Matter 29 465901 (2017);
          URL http://www.quantum-espresso.org", 
     in publications or presentations arising from this work. More details at
     http://www.quantum-espresso.org/quote

     Parallel version (MPI), running on     6 processors

     MPI processes distributed on     1 nodes
     R & G space division:  proc/nbgrp/npool/nimage =       6
     Waiting for input...
     Reading input from standard input

     Current dimensions of program PWSCF are:
     Max number of different atomic species (ntypx) = 10
     Max number of k-points (npk) =  40000
     Max angular momentum in pseudopotentials (lmaxx) =  3
     file Al.pbe-n-kjpaw_psl.1.0.0.UPF: wavefunction(s)  3S 3P renormalized

     Subspace diagonalization in iterative solution of the eigenvalue problem:
     one sub-group per band group will be used
     scalapack distributed-memory algorithm (size of sub-group:  2*  2 procs)

     Found symmetry operation: I + ( -0.5000  0.0000  0.0000)
     This is a supercell, fractional translations are disabled
     Message from routine setup:
     using ibrav=0 with symmetry is DISCOURAGED, use correct ibrav instead

     Parallelization info
     --------------------
     sticks:   dense  smooth     PW     G-vecs:    dense   smooth      PW
     Min         324     159     46                37460    13237    2029
     Max         325     160     48                37471    13256    2034
     Sum        1945     955    283               224791    79449   12191



     bravais-lattice index     =            0
     lattice parameter (alat)  =      10.8235  a.u.
     unit-cell volume          =    3580.6645 (a.u.)^3
     number of atoms/cell      =           12
     number of atomic types    =            1
     number of electrons       =        36.00
     number of Kohn-Sham states=           22
     kinetic-energy cutoff     =      30.0000  Ry
     charge density cutoff     =     240.0000  Ry
     scf convergence threshold =      1.0E-04
     mixing beta               =       0.7000
     number of iterations used =            8  plain     mixing
     energy convergence thresh.=      1.0E-04
     force convergence thresh. =      1.0E-01
     Exchange-correlation= SLA  PW   PBX  PBC
                           (   1   4   3   4   0   0   0)
     nstep                     =           50


     celldm(1)=  10.823529  celldm(2)=   0.000000  celldm(3)=   0.000000
     celldm(4)=   0.000000  celldm(5)=   0.000000  celldm(6)=   0.000000

     crystal axes: (cart. coord. in units of alat)
               a(1) = (   1.000000   0.000000   0.000000 )  
               a(2) = (   0.500000   0.866025   0.000000 )  
               a(3) = (   0.000000   0.000000   3.260816 )  

     reciprocal axes: (cart. coord. in units 2 pi/alat)
               b(1) = (  1.000000 -0.577350  0.000000 )  
               b(2) = (  0.000000  1.154701  0.000000 )  
               b(3) = (  0.000000  0.000000  0.306672 )  


     PseudoPot. # 1 for Al read from file:
     /home/mini21k/QE/Potential/Al.pbe-n-kjpaw_psl.1.0.0.UPF
     MD5 check sum: cfc449ca30b5f3223ec38ddd88ac046d
     Pseudo is Projector augmented-wave + core cor, Zval =  3.0
     Generated using "atomic" code by A. Dal Corso  v.5.1
     Shape of augmentation charge: PSQ
     Using radial grid of 1135 points,  6 beta functions with: 
                l(1) =   0
                l(2) =   0
                l(3) =   1
                l(4) =   1
                l(5) =   2
                l(6) =   2
     Q(r) pseudized with 0 coefficients 


     atomic species   valence    mass     pseudopotential
        Al             3.00    26.98154     Al( 1.00)

      6 Sym. Ops. (no inversion) found



   Cartesian axes

     site n.     atom                  positions (alat units)
         1           Al  tau(   1) = (   0.2500000   0.1443376   0.0000000  )
         2           Al  tau(   2) = (   0.7500001   0.1443376   0.0000000  )
         3           Al  tau(   3) = (   0.4999999   0.5773502   0.0000000  )
         4           Al  tau(   4) = (   1.0000000   0.5773502   0.0000000  )
         5           Al  tau(   5) = (   0.0000000   0.2886752   0.4082484  )
         6           Al  tau(   6) = (   0.4999999   0.2886752   0.4082484  )
         7           Al  tau(   7) = (   0.2500000   0.7216878   0.4082484  )
         8           Al  tau(   8) = (   0.7500001   0.7216878   0.4082484  )
         9           Al  tau(   9) = (   0.0000000   0.0000000   0.8164965  )
        10           Al  tau(  10) = (   0.4999999   0.0000000   0.8164965  )
        11           Al  tau(  11) = (   0.2500000   0.4330126   0.8164965  )
        12           Al  tau(  12) = (   0.7500001   0.4330126   0.8164965  )

     number of k points=     3  Gaussian smearing, width (Ry)=  0.0030
                       cart. coord. in units 2pi/alat
        k(    1) = (   0.0000000   0.0000000   0.0000000), wk =   0.2222222
        k(    2) = (   0.0000000   0.3849002   0.0000000), wk =   1.3333333
        k(    3) = (   0.3333333  -0.5773503   0.0000000), wk =   0.4444444

     Dense  grid:   224791 G-vectors     FFT dimensions: (  54,  54, 180)

     Smooth grid:    79449 G-vectors     FFT dimensions: (  40,  40, 125)

     Estimated max dynamical RAM per process >     156.43 MB

     Estimated total dynamical RAM >     938.58 MB

     Initial potential from superposition of free atoms

     starting charge   35.97252, renormalised to   36.00000

     negative rho (up, down):  6.142E-05 0.000E+00
     Starting wfcs are   48 randomized atomic wfcs
     Checking if some PAW data can be deallocated... 

     total cpu time spent up to now is        1.6 secs

     Self-consistent Calculation

     iteration #  1     ecut=    30.00 Ry     beta= 0.70
     Davidson diagonalization with overlap
     ethr =  1.00E-02,  avg # of iterations =  4.0

     negative rho (up, down):  1.685E-06 0.000E+00

     total cpu time spent up to now is        3.5 secs

     total energy              =    -473.50447357 Ry
     estimated scf accuracy    <       0.55359932 Ry

     iteration #  2     ecut=    30.00 Ry     beta= 0.70
     Davidson diagonalization with overlap
     ethr =  1.54E-03,  avg # of iterations =  5.0

     negative rho (up, down):  2.331E-06 0.000E+00

     total cpu time spent up to now is        5.6 secs

     total energy              =    -473.05302398 Ry
     estimated scf accuracy    <       5.75718622 Ry

     iteration #  3     ecut=    30.00 Ry     beta= 0.70
     Davidson diagonalization with overlap
     ethr =  1.54E-03,  avg # of iterations =  5.0

     negative rho (up, down):  7.817E-06 0.000E+00

     total cpu time spent up to now is        7.6 secs

     total energy              =    -473.82515023 Ry
     estimated scf accuracy    <       0.02844809 Ry

     iteration #  4     ecut=    30.00 Ry     beta= 0.70
     Davidson diagonalization with overlap
     ethr =  7.90E-05,  avg # of iterations =  5.3

     negative rho (up, down):  2.589E-05 0.000E+00

     total cpu time spent up to now is        9.6 secs

     total energy              =    -473.83148217 Ry
     estimated scf accuracy    <       0.00900006 Ry

     iteration #  5     ecut=    30.00 Ry     beta= 0.70
     Davidson diagonalization with overlap
     ethr =  2.50E-05,  avg # of iterations =  4.0

     negative rho (up, down):  2.615E-05 0.000E+00

     total cpu time spent up to now is       11.4 secs

     total energy              =    -473.83373884 Ry
     estimated scf accuracy    <       0.00078102 Ry

     iteration #  6     ecut=    30.00 Ry     beta= 0.70
     Davidson diagonalization with overlap
     ethr =  2.17E-06,  avg # of iterations =  6.7

     negative rho (up, down):  2.714E-05 0.000E+00

     total cpu time spent up to now is       13.4 secs

     total energy              =    -473.83388677 Ry
     estimated scf accuracy    <       0.00099437 Ry

     iteration #  7     ecut=    30.00 Ry     beta= 0.70
     Davidson diagonalization with overlap
     ethr =  2.17E-06,  avg # of iterations =  1.3

     negative rho (up, down):  2.845E-05 0.000E+00

     total cpu time spent up to now is       15.0 secs

     End of self-consistent calculation

          k = 0.0000 0.0000 0.0000 (  9949 PWs)   bands (ev):

    -9.9882  -8.2087  -5.6464  -4.1525  -4.1525  -4.1505  -4.0862  -4.0847
    -4.0847  -2.6434  -2.6417  -2.6417  -2.5177  -2.1123  -2.1123  -2.1111
     0.1221   0.1221   0.1234   0.3261   0.3271   0.3271

          k = 0.0000 0.3849 0.0000 (  9932 PWs)   bands (ev):

    -9.3229  -7.5485  -7.3460  -5.5885  -5.3977  -5.3976  -4.9883  -3.6652
    -3.6650  -3.0542  -1.8895  -1.7236  -1.7234  -1.0064  -1.0063  -0.1093
     0.2334   0.2336   0.4544   1.5908   1.7351   1.7354

          k = 0.3333-0.5774 0.0000 (  9930 PWs)   bands (ev):

    -8.0029  -8.0025  -7.9999  -6.2391  -6.2388  -6.2366  -3.6898  -3.6897
    -3.6875  -2.2652  -2.2651  -2.1419  -1.0145  -0.6433  -0.6429  -0.6411
    -0.2461  -0.2460   2.1351   2.1352   2.4678   2.5957

     the Fermi energy is     0.2721 ev

!    total energy              =    -473.83386292 Ry

     total all-electron energy =     -5827.547242 Ry
     estimated scf accuracy    <       0.00009678 Ry
     smearing contrib. (-TS)   =      -0.00101732 Ry
     internal energy E=F+TS    =    -473.83284560 Ry

     The total energy is F=E-TS. E is the sum of the following terms:
     one-electron contribution =    -336.63644387 Ry
     hartree contribution      =     177.58151773 Ry
     xc contribution           =     -30.41724536 Ry
     ewald contribution        =     131.78445098 Ry
     one-center paw contrib.   =    -416.14512508 Ry

     convergence has been achieved in   7 iterations

     negative rho (up, down):  2.845E-05 0.000E+00

     Forces acting on atoms (cartesian axes, Ry/au):

     atom    1 type  1   force =    -0.00014241   -0.00008222   -0.00162503
     atom    2 type  1   force =     0.00014241   -0.00008222   -0.00162503
     atom    3 type  1   force =     0.00000000    0.00016444   -0.00162503
     atom    4 type  1   force =    -0.00000000   -0.00000000   -0.00164561
     atom    5 type  1   force =     0.00000000   -0.00018712   -0.00010202
     atom    6 type  1   force =     0.00000000    0.00000000    0.00009452
     atom    7 type  1   force =     0.00016205    0.00009356   -0.00010202
     atom    8 type  1   force =    -0.00016205    0.00009356   -0.00010202
     atom    9 type  1   force =     0.00000000    0.00000000    0.00173519
     atom   10 type  1   force =     0.00000000    0.00012994    0.00166568
     atom   11 type  1   force =     0.00011253   -0.00006497    0.00166568
     atom   12 type  1   force =    -0.00011253   -0.00006497    0.00166568

     Total force =     0.003396     Total SCF correction =     0.009299
     SCF correction compared to forces is large: reduce conv_thr to get better values

     BFGS Geometry Optimization
     Energy error            =      0.0E+00
     Gradient error          =      1.7E-03

     bfgs converged in   1 scf cycles and   0 bfgs steps
     (criteria: energy <  1.0E-04 Ry, force <  1.0E-01 Ry/Bohr)

     End of BFGS Geometry Optimization

     Final energy   =    -473.8338629195 Ry
Begin final coordinates

ATOMIC_POSITIONS (angstrom)
Al            1.4318910000        0.8267030000        0.0000000000    0   0   0
Al            4.2956740000        0.8267030000        0.0000000000    0   0   0
Al            2.8637820000        3.3068110000        0.0000000000    0   0   0
Al            5.7275650000        3.3068110000        0.0000000000    0   0   0
Al            0.0000000000        1.6534060000        2.3382690000
Al            2.8637820000        1.6534060000        2.3382690000
Al            1.4318910000        4.1335140000        2.3382690000
Al            4.2956740000        4.1335140000        2.3382690000
Al            0.0000000000        0.0000000000        4.6765370000
Al            2.8637820000        0.0000000000        4.6765370000
Al            1.4318910000        2.4801080000        4.6765370000
Al            4.2956740000        2.4801080000        4.6765370000
End final coordinates



     Writing output data file ./output/pwscf.save/

     init_run     :      1.47s CPU      1.55s WALL (       1 calls)
     electrons    :     12.79s CPU     13.39s WALL (       1 calls)
     forces       :      1.18s CPU      1.24s WALL (       1 calls)

     Called by init_run:
     wfcinit      :      0.47s CPU      0.47s WALL (       1 calls)
     potinit      :      0.42s CPU      0.43s WALL (       1 calls)
     hinit0       :      0.24s CPU      0.25s WALL (       1 calls)

     Called by electrons:
     c_bands      :      5.43s CPU      5.51s WALL (       7 calls)
     sum_band     :      3.03s CPU      3.27s WALL (       7 calls)
     v_of_rho     :      0.47s CPU      0.52s WALL (       8 calls)
     newd         :      2.20s CPU      2.49s WALL (       8 calls)
     PAW_pot      :      2.12s CPU      2.12s WALL (       8 calls)
     mix_rho      :      0.08s CPU      0.08s WALL (       7 calls)

     Called by c_bands:
     init_us_2    :      0.12s CPU      0.12s WALL (      48 calls)
     cegterg      :      5.09s CPU      5.17s WALL (      21 calls)

     Called by *egterg:
     cdiaghg      :      0.09s CPU      0.10s WALL (     115 calls)
     h_psi        :      3.27s CPU      3.34s WALL (     118 calls)
     s_psi        :      0.90s CPU      0.91s WALL (     118 calls)
     g_psi        :      0.01s CPU      0.01s WALL (      94 calls)

     Called by h_psi:
     h_psi:calbec :      1.18s CPU      1.21s WALL (     118 calls)
     vloc_psi     :      1.10s CPU      1.15s WALL (     118 calls)
     add_vuspsi   :      0.98s CPU      0.98s WALL (     118 calls)

     General routines
     calbec       :      1.72s CPU      1.75s WALL (     151 calls)
     fft          :      0.37s CPU      0.38s WALL (     113 calls)
     ffts         :      0.01s CPU      0.01s WALL (      15 calls)
     fftw         :      1.13s CPU      1.17s WALL (    3548 calls)
     interpolate  :      0.04s CPU      0.04s WALL (       8 calls)

     Parallel routines
     fft_scatt_xy :      0.17s CPU      0.17s WALL (    3676 calls)
     fft_scatt_yz :      0.68s CPU      0.70s WALL (    3676 calls)

     PWSCF        :     15.53s CPU     16.27s WALL


   This run was terminated on:  18:24:46  12Jun2023            

=------------------------------------------------------------------------------=
   JOB DONE.
=------------------------------------------------------------------------------=
