ITEM: TIMESTEP
10000
ITEM: NUMBER OF ATOMS
1029
ITEM: BOX BOUNDS pp pp pp
0.0000000000000000e+00 2.1775700000000001e+01
0.0000000000000000e+00 2.1775700000000001e+01
0.0000000000000000e+00 2.1775700000000001e+01
ITEM: ATOMS id type xu yu zu
715 1 27.4628 26.9549 3.41661
236 2 2.75496 7.11507 9.17328
853 1 3.14168 3.74628 7.82336
235 1 3.53825 7.73672 9.17021
237 2 3.71025 8.05156 8.23678
783 2 0.417289 6.73243 3.54913
782 2 1.46887 5.51091 3.28701
781 1 1.35786 6.42138 3.68542
895 1 26.9031 1.27956 25.0441
774 2 5.34831 3.32223 6.28079
528 2 4.84846 8.05336 6.57112
613 1 5.8563 29.7232 2.44045
716 2 28.165 26.2512 3.3082
423 2 4.65096 -17.5616 4.22014
615 2 5.98871 30.5093 1.8367
422 2 3.38662 -17.9588 5.17424
421 1 4.11471 -18.3196 4.59142
717 2 27.8836 27.8593 3.34594
854 2 2.88124 4.1661 8.6928
506 2 23.7531 8.78889 0.245491
812 2 2.74159 30.7902 9.7391
855 2 3.04028 4.41494 7.08674
906 2 4.72769 7.67977 10.3604
614 2 4.96922 29.7984 2.89589
527 2 3.5943 8.02624 5.52567
526 1 3.8891 7.79696 6.45331
1026 2 3.60803 22.8785 23.39
811 1 2.15476 31.5729 9.94644
545 2 6.7316 10.504 8.24511
772 1 6.10394 3.30983 6.93568
982 1 23.2167 25.8683 2.49686
773 2 5.79761 2.89023 7.79014
418 1 3.47409 8.08066 25.4116
766 1 27.2853 1.84871 30.8561
166 1 6.72785 32.2431 44.8374
759 2 23.6023 27.6126 27.2315
757 1 24.3895 27.3341 27.7818
896 2 26.5088 2.02926 25.5756
897 2 27.7836 1.56583 24.6663
758 2 25.0776 28.0596 27.7703
472 1 2.44651 23.2642 30.6824
983 2 23.7347 25.9498 1.64536
473 2 2.902 23.9743 30.1455
474 2 1.45772 23.4117 30.6595
339 2 6.59836 26.6237 7.1169
420 2 3.03401 8.94245 25.1593
905 2 6.34347 7.74033 10.5889
1029 2 1.61094 3.91026 32.4203
761 2 24.4051 2.08524 28.1572
320 2 22.9064 7.33935 1.78391
767 2 26.4113 1.36308 30.8747
1027 1 2.11242 4.62911 31.9389
799 1 22.2549 -12.714 26.7408
167 2 5.97327 32.3785 44.1954
801 2 22.7119 -12.3867 25.9137
395 2 1.63755 22.9158 23.1545
419 2 2.77655 7.37643 25.5439
348 2 23.7214 32.2987 29.7548
215 2 21.9151 1.43109 27.6502
768 2 27.2584 2.60828 31.5059
800 2 22.7001 -12.321 27.5453
762 2 24.2354 0.802632 27.1609
8 2 22.1627 6.65716 9.79313
948 2 6.69316 9.0892 5.33774
732 2 7.08159 23.3354 8.76131
947 2 6.48924 7.99477 4.14305
946 1 6.34916 8.1767 5.11633
337 1 7.11248 27.4812 7.13583
338 2 6.8148 28.0651 6.38051
278 2 0.251222 22.0637 2.74489
1028 2 2.20442 5.4273 32.5343
760 1 23.746 1.49512 27.691
10 1 5.02958 4.09504 10.348
396 2 0.335174 23.625 22.4708
963 2 25.5162 26.2529 21.8532
11 2 5.30351 5.04973 10.2317
958 1 23.6471 -11.4495 3.10186
1024 1 3.15947 22.3341 22.6812
321 2 21.9178 7.70459 0.536574
685 1 5.32951 5.1556 22.4113
984 2 23.3135 24.941 2.85849
687 2 5.21508 5.02381 23.3959
959 2 23.0149 -11.1381 2.39235
346 1 23.0587 32.2224 29.0098
319 1 22.8716 7.61936 0.82454
394 1 0.739886 23.319 23.3325
813 2 2.72252 32.3715 10.1464
686 2 5.57026 6.10879 22.2283
647 2 3.0958 1.42694 10.7423
1025 2 3.46588 22.6421 21.7805
632 2 0.417142 10.561 10.5232
451 1 29.1149 2.98793 2.36489
15 2 7.53948 29.4524 0.913403
546 2 8.33548 10.5182 7.93851
452 2 29.0731 3.0962 1.37165
1018 1 8.88835 4.34742 8.6441
164 2 8.88849 0.259845 22.0372
13 1 8.41582 29.0737 1.21118
453 2 30.064 3.06858 2.6693
777 2 29.9599 32.35 10.468
435 2 33.9592 -11.3026 5.49766
529 1 14.0404 23.1921 10.1217
159 2 13.666 4.75452 9.49377
157 1 12.8762 4.14136 9.47498
294 2 -14.1568 6.75351 -13
292 1 -14.0122 7.43316 -12.2809
530 2 14.13 24.1498 9.84796
293 2 -14.1877 8.34738 -12.6461
1019 2 8.33985 4.83917 7.96783
306 2 30.4481 0.786463 4.55748
304 1 30.3874 0.142053 3.79521
33 2 7.35554 2.43901 5.86372
31 1 8.25511 2.00227 5.87032
80 2 11.2055 8.15475 0.462429
14 2 8.63716 28.2706 0.657969
17 2 9.5819 8.38028 1.64602
158 2 12.4597 4.16208 8.56609
230 2 11.6691 8.41568 26.5578
335 2 30.9763 2.73273 4.09319
32 2 8.49001 1.73705 6.80546
326 2 11.4243 4.74596 6.0867
336 2 32.144 3.86931 3.98642
334 1 31.5881 3.21864 3.46904
202 1 12.2679 1.6041 25.3496
18 2 10.6432 8.52857 2.87825
16 1 10.4861 8.71698 1.9088
796 1 36.1268 24.453 2.23944
972 2 9.81339 4.10486 0.390554
970 1 10.5799 3.72997 0.911994
275 2 13.5339 5.64212 23.4635
971 2 10.3051 3.60495 1.86533
425 2 13.2206 1.8949 4.99802
797 2 36.2375 25.3606 1.83452
155 2 11.149 27.9193 26.0962
156 2 12.2453 26.7135 25.9927
154 1 11.2952 26.9367 26.2108
325 1 11.3995 4.82284 7.08343
327 2 10.4569 4.72351 7.40209
426 2 14.2948 2.5095 6.06338
276 2 12.2611 4.74388 22.9739
274 1 12.8964 5.47047 22.7124
424 1 13.7856 1.69095 5.79752
204 2 11.3647 2.03318 25.337
769 1 13.063 28.7703 7.52912
770 2 12.4616 27.9993 7.31967
229 1 10.8722 7.87723 26.2838
771 2 13.4738 28.6371 8.43104
203 2 12.8886 2.11644 24.7561
364 1 14.2846 5.2808 3.66474
534 2 10.9123 -11.3747 1.4227
731 2 8.3634 22.6775 9.52991
231 2 10.0662 8.19799 26.7813
531 2 13.5923 22.6771 9.39097
823 1 -8.82457 8.76231 5.57865
544 1 7.61109 10.089 8.47801
825 2 -8.80438 8.13514 6.35727
365 2 14.3804 6.24604 3.42156
730 1 8.07801 23.2508 8.76188
541 1 -8.4419 -14.4426 10.6471
824 2 -8.27822 9.57293 5.78935
1020 2 8.66536 3.37321 8.60943
678 2 9.02041 7.06383 -11.16
746 2 11.4647 25.625 10.5002
535 1 10.4494 0.281715 1.81854
747 2 9.85077 25.7988 10.3222
815 2 13.8799 29.9971 4.00559
38 2 13.2104 22.0447 7.28777
1006 1 14.3862 -11.0016 28.1411
537 2 11.2806 0.236539 2.37277
168 2 7.58877 32.5017 44.3993
81 2 12.2028 6.91623 0.0907864
536 2 9.64928 0.29511 2.41817
72 2 9.32244 10.5121 4.53208
117 2 20.0114 8.6511 10.6434
400 1 18.1624 9.65738 0.793589
603 2 17.2902 1.58669 29.0684
432 2 21.2905 7.96297 25.9011
594 2 19.7634 7.13105 29.0722
430 1 20.6479 7.41216 25.3685
592 1 19.9038 6.26818 28.5867
593 2 20.0676 6.45372 27.6178
611 2 20.9709 2.45656 2.59259
216 2 20.7903 2.2441 28.5109
849 2 18.4521 24.5165 30.4273
7 1 21.4577 7.33949 9.98657
727 1 21.5365 23.597 8.90576
214 1 20.9784 1.7814 27.6445
9 2 21.7507 8.22968 9.63774
735 2 16.3925 22.0715 27.348
856 1 -6.83507 9.22773 22.8425
431 2 19.7228 7.54045 25.7261
608 2 16.9234 6.02391 22.1748
367 1 18.6627 1.31131 0.990436
798 2 36.6869 23.7936 1.73787
309 2 15.3256 10.1626 30.7868
366 2 15.1556 4.93768 4.01641
356 2 -5.71185 3.7368 6.33225
857 2 -7.10621 8.77384 23.6913
220 1 15.6258 0.412086 -20.6056
397 1 19.3565 4.19247 8.66551
750 2 37.9232 5.15913 31.9339
609 2 17.4454 7.46633 22.7348
688 1 16.3665 9.36018 4.97378
820 1 19.6538 -11.5853 4.90965
830 2 38.1141 -13.519 -11.658
638 2 37.6609 7.65163 -13.8456
703 1 -2.39296 9.34651 7.98516
398 2 19.3733 4.59876 9.5791
704 2 -2.54576 9.17145 8.95779
637 1 38.1808 7.29568 -14.6221
831 2 36.528 -13.8728 -11.8185
495 2 -4.16281 8.14924 26.4307
749 2 38.0604 5.81053 30.4428
848 2 17.3872 24.0485 31.5735
368 2 18.346 0.374309 1.13776
748 1 37.5757 5.13344 30.9965
639 2 37.9086 7.77797 -15.4547
829 1 37.3068 -13.4057 -12.2371
821 2 19.1148 -11.924 5.6809
284 2 17.6738 4.17017 1.41241
878 2 19.407 3.96211 2.624
494 2 -4.03333 6.88405 27.455
728 2 21.3027 24.1067 9.73376
702 2 18.5827 10.8041 10.1571
602 2 17.4972 2.44542 27.695
822 2 20.5489 -12.0311 4.90725
115 1 19.1356 9.11425 10.5073
814 1 14.6098 29.7331 3.37513
601 1 17.3855 1.52711 28.0747
976 1 -1.56885 29.1687 22.0335
283 1 16.9801 4.21261 0.693389
285 2 16.9205 3.32589 0.23494
355 1 -6.61668 3.94907 6.70134
879 2 19.158 5.55953 2.85394
847 1 17.8745 23.7656 30.7473
670 1 18.0458 3.9705 5.66159
690 2 16.0496 9.78038 5.8241
399 2 19.7075 4.85209 8.00087
672 2 18.3509 4.67003 6.30776
369 2 18.8642 1.73759 1.87231
222 2 15.1283 0.393454 -21.4729
610 1 20.2353 2.57674 3.25928
493 1 -3.81929 7.21606 26.5363
612 2 20.5305 2.22627 4.14811
729 2 20.8276 22.9161 8.72208
671 2 18.4553 4.14286 4.76574
816 2 15.4957 29.976 3.77038
357 2 -6.51702 4.46982 7.54921
877 1 18.7422 4.70476 2.54325
662 2 -3.26613 0.374274 27.1229
734 2 14.7635 22.0947 27.4592
689 2 16.2243 9.9956 4.21482
401 2 17.243 9.35797 1.0486
705 2 -2.0728 10.2858 7.86182
858 2 -7.04074 8.63242 22.0658
607 1 16.8387 7.01578 22.0799
104 2 18.3624 21.8789 30.3256
977 2 -1.96224 28.2509 21.9798
1005 2 15.8073 1.86043 10.8495
978 2 -2.2906 29.8488 21.9048
628 1 2.56403 0.293394 15.7678
629 2 2.68886 0.96667 15.039
630 2 1.60842 0.29446 16.0625
986 2 2.45235 30.5311 18.5953
985 1 3.15316 30.6811 17.8979
211 1 2.06545 2.12037 13.8589
213 2 2.44812 1.763 13.0069
792 2 1.85456 5.10704 20.74
755 2 2.68836 26.075 13.7926
692 2 -17.1816 28.2699 15.9295
691 1 -17.4329 27.3051 15.8516
754 1 3.16504 26.8713 13.4202
693 2 -17.755 27.1185 14.9234
539 2 3.70522 10.6412 21.4087
148 1 26.4967 24.8888 -5.30564
756 2 2.49532 27.5347 13.0864
902 2 6.73244 21.9229 12.7038
316 1 25.3121 23.4925 -1.66805
118 1 0.544022 30.0449 -2.7235
317 2 24.7411 23.6292 -2.47754
119 2 0.150606 30.0149 -3.64237
318 2 26.163 23.039 -1.93311
149 2 26.3672 25.8592 -5.50973
439 1 27.3687 7.61106 -0.481131
150 2 25.6062 24.4361 -5.26027
440 2 26.4934 8.04588 -0.692669
120 2 0.617142 29.1156 -2.36167
962 2 24.7319 25.0115 21.1387
441 2 28.0703 7.95255 -1.10657
388 1 21.9626 32.2953 -1.23678
987 2 3.39999 31.65 17.8765
604 1 4.77382 9.31526 13.029
437 2 5.72256 8.91297 38.0434
839 2 1.51052 24.9061 39.8576
961 1 24.6192 25.8496 21.6724
791 2 1.20077 6.56519 21.0761
790 1 1.43351 5.92366 20.3452
153 2 2.79184 27.0184 -4.35374
226 1 6.74772 10.3259 15.1223
436 1 5.16681 8.08171 38.0559
649 1 24.195 8.60236 14.0063
44 2 26.719 27.0921 13.214
438 2 4.23087 8.31052 38.3236
43 1 27.6638 27.3657 13.0338
651 2 25.1546 8.73825 13.76
45 2 27.6702 28.2277 12.5269
795 2 6.7597 25.2017 18.0767
295 1 7.08534 25.0366 -0.408144
606 2 5.54789 9.54563 13.6187
648 2 3.80478 0.465713 11.8558
838 1 1.4768 23.9415 40.1193
4 1 5.97051 22.487 19.3829
12 2 4.468 4.00728 11.1707
650 2 24.0081 9.05229 14.8796
212 2 1.09612 1.8811 13.9151
266 2 25.2018 10.7816 12.5855
151 1 2.03457 26.4917 -3.96763
605 2 5.06151 8.63987 12.35
152 2 1.78335 26.8724 -3.07772
303 2 6.20129 2.21503 16.3328
5 2 6.47855 22.4371 20.2427
301 1 7.0185 1.71503 16.6194
794 2 7.02545 26.8116 18.1396
793 1 7.24004 25.9315 18.5631
875 2 7.07935 31.3977 19.3344
810 2 7.25443 26.6585 14.2015
458 2 -15.3043 6.73117 -5.21333
903 2 6.56028 22.9713 13.9439
297 2 6.30336 25.6179 -0.183467
904 1 5.45399 7.73205 11.0458
901 1 7.21739 22.532 13.3313
245 2 1.88651 7.7049 12.5647
244 1 1.62762 7.01152 11.8922
246 2 0.642069 7.05701 11.7291
840 2 0.815148 23.4625 39.5424
389 2 21.9565 31.4315 -1.74043
92 2 7.04247 10.4863 -4.41913
646 1 3.13216 1.19189 11.7136
74 2 0.288901 7.51475 16.0439
208 1 21.9364 26.8257 15.8482
209 2 22.6406 26.8697 16.5567
477 2 22.0426 23.5343 20.2779
507 2 23.4286 10.189 -0.529687
505 1 24.1404 9.65319 -0.075488
6 2 6.61323 22.5235 18.6176
543 2 -8.6474 -15.2329 11.2243
228 2 7.63759 9.95158 14.8616
296 2 7.46925 25.3193 -1.28715
251 2 11.7034 24.6697 21.3858
787 1 13.4521 22.9019 -4.27853
84 2 9.94217 32.6182 -7.14617
776 2 29.4237 31.8927 11.9412
165 2 8.02253 1.55045 21.5361
225 2 -10.4825 22.4688 -7.00323
82 1 9.80744 31.6282 -7.18833
302 2 7.70468 1.75343 15.893
890 2 -13.0172 8.85546 -8.18292
891 2 -13.4829 7.67204 -9.20726
889 1 -13.6811 8.59767 -8.88488
201 2 12.9309 9.61638 12.2343
252 2 11.2065 24.1616 19.9156
223 1 -10.0927 23.0346 -7.72974
163 1 8.07571 0.551866 21.5331
881 2 31.8354 5.89156 -1.12824
677 2 9.62254 5.73472 -10.4269
884 2 -11.9097 23.1373 12.8238
899 2 30.4145 45.0609 14.1382
83 2 10.2456 31.1983 -6.39891
874 1 7.43413 30.5975 19.818
572 2 12.0439 8.38194 -2.1291
427 1 11.31 8.76512 33.807
809 2 8.34193 25.5776 14.7632
808 1 7.9977 26.512 14.8543
876 2 8.17985 30.1921 19.2894
429 2 10.7765 9.46749 34.2783
681 2 -11.8875 6.38306 -3.15816
679 1 -12.5848 7.06768 -3.37029
680 2 -13.298 6.65296 -3.93534
459 2 -14.2879 5.51146 -5.59528
457 1 -14.5028 6.21269 -4.91549
954 2 11.5223 30.0626 17.1902
344 2 11.2035 6.22249 15.6248
953 2 9.96819 29.5614 17.1802
952 1 10.7084 29.9376 16.6229
635 2 11.0475 4.0338 12.7174
428 2 10.7068 8.01587 33.5336
993 2 -12.8633 24.8488 18.5097
343 1 11.7769 5.42467 15.8109
345 2 11.4987 4.6687 15.2184
634 1 11.4204 3.82391 13.6213
636 2 11.6275 2.84724 13.6778
991 1 -11.9218 24.5229 18.5958
992 2 -11.8706 23.5696 18.2981
28 1 14.2092 5.21229 34.8495
29 2 13.7174 4.6154 35.4834
30 2 14.2117 6.14676 35.2055
944 2 35.8307 32.049 -6.65532
571 1 12.5448 8.37546 -2.9946
24 2 10.7311 4.1663 40.2709
885 2 -11.6842 23.9049 11.4003
23 2 11.159 5.36624 39.2493
22 1 11.042 5.11479 40.21
964 1 35.1038 27.2871 19.9491
966 2 34.2832 27.115 19.4041
673 1 14.173 27.4707 -4.44854
675 2 13.4083 27.6559 -5.06569
674 2 13.8542 27.5102 -3.50155
883 1 -11.7797 23.012 11.8403
573 2 13.5091 8.17648 -2.82014
408 2 13.5777 24.3604 20.7031
898 1 30.7191 45.7705 14.7736
900 2 31.718 45.7709 14.8189
250 1 12.0047 24.3447 20.4894
965 2 34.8952 27.1514 20.9177
882 2 30.221 5.80682 -1.35888
134 2 12.6477 32.1647 18.5265
199 1 13.7595 10.0473 12.5916
263 2 -8.30761 0.35137 11.4598
224 2 -9.5858 22.4551 -8.36788
786 2 -12.1265 32.0832 19.7489
79 1 11.5893 7.61128 -0.284118
789 2 12.4922 22.8548 -4.55494
788 2 13.5299 22.6835 -3.30578
381 2 -7.37929 0.332686 38.0168
713 2 14.4427 6.82791 -1.65385
676 1 9.71118 6.72637 -10.5205
880 1 30.9875 5.46255 -0.816718
745 1 10.5813 25.5702 10.9656
542 2 -9.02634 -13.6756 10.9117
402 2 18.1687 9.93265 -0.167757
957 2 -1.07752 3.98371 32.7895
669 2 -3.16326 21.9609 11.4651
967 1 -2.43304 26.9479 11.4409
64 1 -3.83328 10.2166 13.6278
256 1 16.1372 7.74449 16.4359
1003 1 16.4403 2.41721 11.3873
65 2 -4.69339 10.3864 13.1468
498 2 -0.675324 31.7008 16.3556
887 2 15.8412 0.0462012 19.7854
807 2 -4.78725 31.7717 19.3943
888 2 15.6212 1.63271 20.1036
868 1 17.4612 0.328883 -4.575
568 1 36.9216 7.95336 13.4919
569 2 37.8173 7.9777 13.0478
956 2 -0.467961 2.90872 33.857
258 2 15.7286 7.13067 17.1114
707 2 -6.69714 26.0238 16.5361
870 2 16.8531 0.509541 -3.80195
570 2 36.3567 8.7017 13.1442
708 2 -6.73381 24.4189 16.8352
406 1 14.5656 24.4984 20.7728
585 2 15.9644 5.07893 12.7877
714 2 15.7231 7.59278 -0.989044
407 2 14.7973 25.4171 20.453
1004 2 16.2728 2.26545 12.3614
712 1 14.9115 7.70641 -1.56204
668 2 -3.75629 22.7262 12.7802
254 2 -2.3307 2.92856 -5.30169
780 2 17.1452 10.6016 -4.44184
684 2 20.6747 7.2415 13.2879
584 2 16.7752 3.87017 12.0474
1 1 16.5631 23.1215 13.8529
253 1 -1.53532 2.63521 -5.83209
683 2 21.2774 5.96833 14.114
217 1 18.47 -14.6191 19.7128
3 2 16.9669 23.7435 14.5238
257 2 15.7782 7.52743 15.5281
886 1 16.2166 0.964249 19.6578
706 1 -6.19151 25.1654 16.4497
667 1 -2.98616 22.1998 12.4199
955 1 -0.469161 3.19772 32.8997
75 2 -1.28018 7.65438 16.4742
969 2 -3.14853 26.4713 11.9517
968 2 -1.7374 27.2837 12.0759
102 2 -1.39379 8.64866 14.7067
682 1 21.0051 6.3008 13.211
238 1 21.7384 22.0464 16.532
101 2 -2.25653 9.39948 13.5411
583 1 16.8527 4.79089 12.4299
909 2 18.4439 6.8318 -5.55512
751 1 18.5363 2.608 -1.32257
940 1 -0.949338 23.7474 13.4915
941 2 -1.63591 23.2522 12.9592
907 1 19.3208 6.48667 -5.22067
260 2 18.1371 8.13049 34.8952
806 2 -3.62562 30.6336 19.5421
475 1 21.3002 23.6302 20.9409
476 2 20.4939 24.0086 20.4861
805 1 -3.97468 31.4963 19.908
752 2 17.8474 2.15239 -1.88631
73 1 -0.405683 8.13495 16.4085
255 2 -1.37677 1.65919 -5.68294
210 2 21.4338 25.9651 15.9307
942 2 -1.33269 23.9957 14.3811
779 2 16.1709 9.29129 -4.42304
110 2 -2.92306 4.29563 -0.470183
259 1 17.5029 7.70154 34.252
261 2 17.711 6.72617 34.179
219 2 19.1261 -15.3503 19.8997
558 2 17.8606 25.5861 18.4608
2 2 16.0168 22.4302 14.3258
753 2 18.6583 2.10006 -0.469851
111 2 -1.30439 4.50177 -0.406783
100 1 -1.44049 8.85283 13.7289
908 2 19.1839 5.59899 -4.78105
109 1 -2.18228 4.9648 -0.528895
556 1 18.1251 25.4117 17.5124
557 2 17.308 25.2233 16.9677
218 2 17.6955 -14.6978 20.3404
116 2 18.5292 8.91327 11.2767
778 1 16.2909 10.2244 -4.08417
239 2 21.0734 21.8953 17.2634
509 2 6.62073 14.7258 8.06406
139 1 28.8153 16.8724 10.5496
721 1 27.0581 -6.20649 27.7789
722 2 26.8615 -7.18068 27.668
128 2 3.00865 18.8002 5.94542
127 1 3.25995 19.7301 6.21382
600 2 27.4005 18.9757 8.08841
598 1 27.0819 18.373 8.82004
599 2 27.867 18.0351 9.33914
362 2 3.42712 15.581 8.70216
361 1 4.35868 15.8746 8.48767
363 2 4.45143 16.8525 8.67504
723 2 26.8439 -5.92768 28.715
845 2 23.9569 11.3731 5.95531
47 2 26.1093 -3.74772 25.2965
846 2 23.4031 12.7548 5.28373
90 2 21.8563 14.5713 6.42999
835 1 25.7828 13.615 24.0731
844 1 24.0755 12.0192 5.20126
48 2 25.2352 -2.3688 25.3312
742 1 5.38745 11.6088 7.88525
279 2 0.763921 21.0936 3.95431
741 2 -17.6697 19.1997 -11.9535
743 2 5.255 12.3349 7.21057
61 1 26.6537 13.064 27.1134
63 2 25.8274 12.5014 27.141
46 1 26.154 -2.75531 25.4111
588 2 23.1875 -2.9321 1.311
642 2 24.6616 -8.76228 10.0151
50 2 4.45199 16.053 4.41655
49 1 4.05774 16.294 3.52972
640 1 25.4127 -9.34569 9.70618
586 1 23.2441 -2.96396 2.30889
51 2 3.78261 15.461 3.04975
169 1 3.0519 21.3993 25.984
62 2 27.2684 12.7189 26.4041
842 2 22.7411 -1.17822 8.97511
499 1 22.9261 -4.02901 27.4624
500 2 22.1255 -3.43865 27.5651
580 1 0.530399 15.7091 29.3429
581 2 0.90612 16.3605 28.6837
657 2 4.44639 17.016 1.30992
841 1 23.6811 -1.10846 8.6413
524 2 4.81478 -2.04843 6.60385
197 2 22.8607 14.6208 -12.9895
501 2 22.9116 -4.456 26.5583
196 1 23.3411 14.2937 -12.1758
655 1 4.63226 17.3576 0.388655
1009 1 28.7856 19.485 4.34262
1010 2 27.9337 19.3545 3.83559
641 2 26.2289 -9.15487 10.2515
740 2 -19.1 19.9794 -11.8405
340 1 23.5606 14.0328 22.904
725 2 0.896394 -4.56989 2.51933
341 2 24.3791 13.8729 23.4558
843 2 23.8511 -0.178316 8.31581
724 1 0.444998 -5.45879 2.59748
837 2 26.2787 13.0616 24.7423
523 1 5.78384 -1.87511 6.77958
510 2 6.6833 13.2208 8.69475
508 1 7.22851 14.0024 8.39153
171 2 3.21589 20.6529 26.6289
656 2 4.37197 18.3215 0.331776
342 2 23.0164 13.1948 22.8644
471 2 -14.997 -5.46495 5.29212
241 1 6.39185 33.7709 47.0184
739 1 -18.3963 19.4862 -11.3291
587 2 22.8424 -2.13228 2.69224
347 2 22.2534 32.776 29.222
726 2 0.907261 -6.12042 2.0071
57 2 7.11784 -1.67443 22.09
412 1 3.56817 19.8968 21.8645
744 2 4.71062 11.7045 8.61515
836 2 26.265 13.5906 23.1974
525 2 6.29094 -1.91431 5.91859
129 2 2.75085 19.9892 7.03461
818 2 21.7837 11.4202 22.1566
414 2 3.29041 20.7368 22.3306
56 2 5.66171 -2.12259 22.6778
243 2 6.39451 33.1937 46.2018
55 1 6.65075 -2.23433 22.7744
404 2 6.58911 17.2065 0.760099
242 2 6.92104 33.3274 47.7418
277 1 0.0376627 21.2495 3.2848
198 2 22.7691 14.4415 -11.369
960 2 23.9427 -10.668 3.65125
817 1 21.7893 11.838 23.0652
170 2 3.92726 21.7705 25.6742
913 1 6.38966 34.7023 10.8261
914 2 6.8337 35.5861 10.679
445 1 9.84695 -10.3289 28.8909
405 2 7.42478 16.0778 1.5933
141 2 29.5757 16.4641 10.0446
470 2 -14.4786 -4.08997 4.57983
1011 2 29.5625 19.3793 3.72186
54 2 8.31679 19.3613 1.74441
469 1 -14.2857 -5.06163 4.71642
392 2 7.71906 -8.23318 3.45718
464 2 11.8369 12.7105 23.2602
447 2 10.4397 -10.4131 28.0899
41 2 13.9978 -9.49407 22.7804
463 1 12.6763 13.2538 23.2452
71 2 8.56184 11.2968 5.74546
521 2 11.7801 20.4039 3.90689
448 1 9.10276 -0.971036 10.5547
937 1 13.5131 13.0318 8.1118
873 2 9.55984 14.0241 23.0045
403 1 7.33731 16.5447 0.713333
434 2 33.6518 -9.76961 5.02637
87 2 8.49625 -1.28452 30.5882
520 1 11.605 20.8283 4.79529
271 1 9.09563 15.2198 9.76971
86 2 7.33554 -1.37591 29.4432
446 2 10.2549 -9.68851 29.5416
147 2 10.7674 12.943 9.72312
39 2 12.1716 21.0655 8.08063
272 2 8.45734 14.8356 9.10268
872 2 9.89503 12.7024 22.106
433 1 33.2906 -10.7015 5.05982
1001 2 11.8578 16.4996 23.4753
373 1 32.8841 17.7355 0.945588
1000 1 12.248 15.7913 24.0636
892 1 -9.21491 19.709 24.1033
375 2 32.4642 17.108 0.28989
393 2 8.45036 -6.7761 3.55066
694 1 12.0965 15.8917 9.77792
287 2 -13.6885 17.0853 -15.1626
696 2 12.7018 15.9583 8.98469
76 1 32.8144 -1.93469 28.9026
286 1 -13.5249 17.431 -14.2386
665 2 11.2905 14.4165 27.3133
666 2 10.4235 13.8924 26.0326
664 1 11.3398 13.9532 26.4285
20 2 9.66831 -5.78861 7.38499
1007 2 14.3162 -10.6175 29.0617
288 2 -13.6528 18.4227 -14.2262
21 2 10.5591 -7.13875 7.60921
19 1 10.3497 -6.3947 6.97474
709 1 10.7507 18.1731 9.67333
917 2 11.1383 16.9715 -15.9274
916 1 11.914 17.6019 -15.8988
695 2 11.5633 16.7335 9.8619
918 2 11.7291 18.3281 -15.2366
391 1 8.42296 -7.64578 3.05781
1008 2 14.424 -10.2593 27.4721
893 2 -9.52857 18.8279 23.7492
374 2 32.2021 18.3967 1.25802
711 2 11.0114 18.7749 8.91837
78 2 31.872 -1.66345 29.0981
146 2 11.9496 13.3519 8.67336
465 2 12.5046 14.1442 23.6667
145 1 10.9618 13.2502 8.79155
1002 2 12.8587 16.2134 24.7335
189 2 13.6208 35.3186 4.24732
77 2 33.1304 -1.46966 28.0757
85 1 8.27031 -1.63971 29.6811
871 1 9.71456 13.6855 22.0764
1014 2 12.9928 -4.08832 4.505
52 1 9.27618 19.4679 2.00556
37 1 12.9971 21.623 8.16904
53 2 9.46129 20.4293 2.20923
894 2 -8.2817 19.8817 23.7882
1013 2 14.3296 -3.62719 3.68833
710 2 9.75786 18.0539 9.67685
187 1 14.3993 34.7512 4.51566
532 1 10.7217 -10.4881 1.00121
305 2 29.8115 -0.631975 4.05812
938 2 14.1969 12.6926 8.75782
383 2 13.4615 -5.32817 6.81265
273 2 9.96996 14.7382 9.71023
70 1 8.46327 10.9366 4.81784
382 1 13.9615 -5.9985 7.36089
939 2 13.7572 13.9578 7.82375
1012 1 13.7557 -4.40587 3.94179
177 2 -7.56271 19.8633 -13.5285
644 2 35.5653 15.7336 22.7292
522 2 11.9563 21.7645 4.79249
533 2 10.5692 -10.6111 0.0205959
89 2 21.2732 13.0476 6.35881
88 1 21.7505 13.7639 5.84966
511 1 -2.55238 11.5305 24.0535
307 1 15.5502 11.1352 30.8467
701 2 18.7028 12.4264 10.0148
819 2 20.8647 11.8206 23.4457
582 2 -0.223705 16.1368 29.8414
331 1 20.5991 19.1012 -15.4717
162 2 -1.54028 14.5011 10.2944
443 2 15.3741 -5.67587 32.0228
103 1 18.6472 20.9262 30.2201
144 2 14.8181 11.7957 10.4811
616 1 21.0018 -1.95667 9.60329
323 2 -4.02767 16.8191 1.27007
42 2 14.8566 -10.829 22.3971
643 1 36.3442 16.2777 22.4176
298 1 20.7505 11.8729 7.88309
221 2 16.2605 -0.35981 -20.5688
370 1 15.7002 -6.40627 3.68995
513 2 -2.56319 11.0878 24.9501
411 2 19.4914 -6.70731 7.34886
308 2 16.5422 11.2518 30.7981
328 1 18.522 -1.24635 24.1667
479 2 -2.20839 -3.59399 0.405635
300 2 19.9796 12.4808 7.69258
59 2 -2.46474 14.7719 21.8119
188 2 15.146 34.8798 3.86305
160 1 -2.48133 14.1629 10.2997
700 1 18.2815 11.6025 9.63575
322 1 -4.59433 16.0601 1.59068
409 1 18.9884 -7.48693 7.72197
330 2 18.6833 -0.827899 25.0605
631 1 -0.433541 11.0842 10.5751
490 1 15.9222 19.954 25.0344
491 2 16.7338 20.3962 24.6526
329 2 19.1401 -2.02311 24.0459
660 2 20.3861 17.7634 8.94823
113 2 42.5786 14.6535 26.3912
112 1 42.0827 15.3396 25.8589
324 2 -4.05718 15.2166 1.58293
105 2 17.9737 20.4363 29.6665
454 1 -4.84737 17.0567 30.546
384 2 14.8442 -6.18873 6.93111
132 2 -2.70295 13.1493 2.05815
299 2 20.8537 11.7654 8.87192
40 1 14.911 -9.84678 22.5766
372 2 14.9925 -5.71444 3.83369
371 2 16.2851 -6.13126 2.92691
551 2 15.9496 11.6616 23.866
492 2 15.5313 20.5344 25.7487
270 2 -2.32961 -5.49607 -16.2626
550 1 16.44 11.5423 24.7293
552 2 17.262 12.1119 24.7271
311 2 17.3945 -6.95631 6.53584
827 2 18.0465 -1.6013 27.6156
269 2 -3.50296 -4.66718 -15.4862
618 2 20.2406 -1.35487 9.36134
333 2 20.1861 18.1907 -15.4494
826 1 17.5572 -2.29946 28.1382
733 1 15.5569 21.54 27.2088
658 1 20.1219 16.7994 8.97843
130 1 -2.83419 14.127 1.89428
661 1 -2.90619 -0.362049 26.55
617 2 20.9282 -2.2164 10.5662
268 1 -2.54912 -4.96458 -15.4445
828 2 16.8392 -2.69993 27.5689
312 2 16.2716 -6.73563 5.37089
34 1 -6.78698 18.8956 0.640937
35 2 -6.25339 19.0898 1.46407
456 2 -5.49398 17.7766 30.2939
36 2 -7.02327 17.9242 0.618404
478 1 -1.73934 -3.38452 1.26361
176 2 -6.18998 19.6077 -14.3752
659 2 19.1253 16.7281 9.02026
175 1 -6.94885 19.1653 -13.8973
332 2 19.9406 19.7742 -15.1347
410 2 18.9867 -7.43541 8.72064
455 2 -4.8385 16.3529 29.8356
310 1 16.4919 -6.57656 6.33329
645 2 37.1888 15.897 22.7941
480 2 -0.751073 -3.38087 1.11093
131 2 -2.44677 14.6474 2.65522
114 2 42.7322 15.8794 25.3234
663 2 -1.90774 -0.369651 26.6052
512 2 -2.94346 10.9122 23.3717
518 2 23.0329 15.0092 14.4203
517 1 23.529 14.2291 14.8017
519 2 24.3324 14.0371 14.2381
416 2 4.4994 15.067 18.5615
561 2 26.882 38.4817 -1.25669
921 2 27.1812 16.633 13.8174
415 1 4.27384 14.5297 17.7488
560 2 27.9263 38.1004 -2.45275
559 1 27.0143 37.9295 -2.07985
417 2 3.86487 15.1259 17.058
181 1 0.772665 16.5136 13.9467
597 2 2.60356 18.0847 -3.08237
314 2 24.5124 -5.85896 -6.2134
183 2 0.986117 17.3482 13.4389
595 1 2.39805 18.4677 -3.98296
919 1 27.3463 17.1263 14.6714
920 2 26.7844 16.7315 15.3983
172 1 0.367108 12.3208 12.7119
923 2 27.7381 -8.76563 -0.489642
487 1 4.22988 13.5834 -8.48307
488 2 4.45134 14.2839 -9.16147
489 2 5.04478 13.373 -7.943
622 1 1.32036 -3.40017 12.0547
315 2 24.5387 -4.4931 -5.31877
313 1 25.0903 -5.24919 -5.67098
623 2 1.97387 -3.19487 11.3262
863 2 24.1412 12.0314 17.3957
989 2 4.7425 19.7788 37.6787
578 2 0.357545 35.2695 17.7846
988 1 4.72483 19.6447 36.6879
249 2 0.903264 18.4083 -5.00616
862 1 23.2746 12.3215 16.9896
990 2 5.04219 18.7216 36.4707
174 2 1.16469 12.0047 12.1981
924 2 27.0773 -7.27623 -0.5982
182 2 0.300066 16.7514 14.7953
540 2 4.45715 12.0908 21.4119
864 2 23.4542 12.9641 16.2448
922 1 26.9455 -8.20461 -0.250726
567 2 6.47144 20.5693 16.9388
486 2 0.321126 41.5421 21.1285
485 2 1.37998 40.4171 20.5995
122 2 23.5434 16.5365 20.1383
121 1 24.2425 17.2513 20.1544
596 2 2.96885 19.2736 -4.14063
621 2 26.8248 -1.10975 13.3437
123 2 25.1422 16.8346 20.2849
25 1 4.0425 -1.10854 17.4892
574 1 0.82948 15.2945 20.6184
413 2 2.75656 19.3618 21.6299
936 2 5.30963 15.9367 11.449
575 2 0.243189 14.8084 19.9703
576 2 1.20516 14.6453 21.2798
653 2 27.9252 13.9225 17.4508
619 1 26.7911 -0.914782 12.3635
290 2 6.90525 -8.16262 15.214
289 1 6.87042 -8.78836 14.4347
935 2 3.86388 16.4902 11.9687
915 2 7.04438 34.0635 11.2302
227 2 6.69785 11.287 14.8507
620 2 26.1023 -1.4968 11.9313
95 2 4.12587 12.5944 -3.37697
934 1 4.76532 16.1663 12.2559
516 2 24.0761 20.3232 14.6473
94 1 3.70876 11.69 -3.28748
538 1 4.53088 11.1334 21.1328
652 1 28.7163 14.2033 16.9073
484 1 1.07073 40.9366 21.396
265 1 24.6143 11.5845 12.4845
624 2 0.447368 -2.95545 11.8545
247 1 0.0680247 18.304 -5.54606
173 2 0.599602 12.3847 13.6824
248 2 0.0401225 19.0075 -6.2562
515 2 23.3982 19.4735 13.4286
27 2 3.52694 -0.629444 16.7788
514 1 23.219 19.956 14.286
96 2 4.03245 11.2553 -2.44706
267 2 25.1693 12.4138 12.5494
26 2 4.09364 -0.535932 18.3074
933 2 9.17278 11.8979 -10.3982
565 1 7.33533 20.0924 16.7769
566 2 7.51867 20.0593 15.7944
943 1 35.851 32.7783 -5.97134
93 2 8.28833 11.5414 -4.4539
481 1 10.7272 -6.04248 20.7891
785 2 -10.9136 33.1606 19.5623
483 2 10.337 -6.75972 21.3664
931 1 10.0664 12.3449 -10.4387
291 2 7.48382 -8.46044 13.7163
262 1 -8.62719 -0.312502 12.1359
107 2 10.9257 -1.39344 21.5521
68 2 8.79233 14.4478 11.7087
926 2 10.1858 15.5539 16.7833
354 2 -8.2284 34.7529 12.8335
736 1 10.5274 -4.40599 18.514
737 2 11.467 -4.18091 18.2562
925 1 10.8139 15.506 16.0066
866 2 7.37878 -4.44687 -8.01186
865 1 8.11812 -4.65501 -8.65221
106 1 10.7182 -1.67064 20.614
927 2 11.4094 16.3094 16.0093
950 2 11.7802 19.5145 -2.38168
69 2 9.29799 13.8918 13.1585
67 1 8.61896 14.4599 12.6935
591 2 13.8106 20.3312 13.3129
975 2 -12.835 14.5741 19.5438
999 2 10.9573 -2.54446 14.3631
763 1 -11.5188 12.7036 14.2404
973 1 -12.8506 14.8791 18.5916
764 2 -10.5353 12.8808 14.2033
654 2 29.3874 14.648 17.5005
207 2 10.009 -0.683181 19.192
852 2 29.4354 17.2682 -4.2506
461 2 8.12895 -3.58416 -21.8505
462 2 8.35146 -3.80727 -23.4528
460 1 8.51158 -3.18719 -22.6848
206 2 8.84565 -0.694086 18.046
589 1 14.1085 19.7854 14.096
178 1 11.1801 21.6263 16.1162
179 2 11.3592 20.6831 15.8366
851 2 29.1269 18.5565 -3.29566
850 1 29.2732 17.5674 -3.31025
697 1 10.3061 18.5884 12.4331
698 2 9.66111 17.892 12.7477
699 2 10.8121 18.2416 11.6434
205 1 9.6672 -0.225684 18.3711
1017 2 -9.26323 15.1171 34.7641
180 2 10.6998 21.6284 16.9933
765 2 -11.8043 12.6066 15.1939
974 2 -12.3867 15.7618 18.5167
1015 1 -9.28457 15.9635 34.2319
1016 2 -9.4462 15.7477 33.2689
108 2 9.86096 -2.18544 20.6005
376 1 13.4111 37.1989 41.7329
997 1 11.579 -2.63811 15.1407
867 2 8.39049 -5.61147 -8.54737
281 2 8.42778 12.9425 20.9678
998 2 12.5222 -2.67662 14.8107
280 1 7.51781 12.7248 20.6149
719 2 13.9318 16.7767 13.3697
949 1 12.6249 19.0776 -2.69108
282 2 7.60398 12.1335 19.8131
738 2 10.5082 -4.719 19.4635
352 1 -8.79501 34.9077 13.6428
233 2 -9.03335 14.8626 15.8709
185 2 10.8812 12.2023 -4.42536
353 2 -8.25985 34.7171 14.4657
377 2 13.9552 36.5043 41.2621
99 2 13.3096 16.3732 -3.30337
951 2 13.3643 19.2925 -2.05306
98 2 13.1265 17.9534 -3.67209
97 1 13.3269 17.0464 -4.04257
140 2 29.1389 17.188 11.4416
932 2 10.5203 12.2635 -9.55132
186 2 9.53885 13.1318 -4.45141
184 1 9.98029 12.324 -4.8419
784 1 -11.4971 32.6951 20.2279
264 2 -9.47266 -0.737247 11.8122
234 2 -7.87159 15.8017 16.5305
91 1 7.67601 11.0204 -3.85929
378 2 13.9603 37.6196 42.4549
450 2 9.45898 -1.69794 11.1419
482 2 11.5313 -6.39843 20.313
133 1 12.1704 32.8309 17.9534
142 1 14.3949 12.3465 11.2005
232 1 -8.05734 14.9294 16.0782
135 2 12.6456 32.9186 17.078
449 2 9.41088 -0.0839273 10.8984
444 2 14.09 -6.1481 32.9144
200 2 13.7302 11.0298 12.4076
775 1 29.6561 32.6753 11.3636
579 2 -1.15174 35.1473 18.3959
385 1 -0.145426 36.3815 11.7417
577 1 -0.381937 35.766 18.2392
1022 2 -0.61084 -5.87065 -3.51676
124 1 14.5316 13.0178 18.4239
564 2 -3.20263 17.5085 38.0136
386 2 -0.030845 35.4884 12.1768
945 2 36.6556 32.6659 -5.38819
548 2 -3.44185 -6.22362 19.6166
802 1 20.424 -1.14177 20.7801
803 2 19.8609 -1.92514 21.0432
627 2 -5.24663 -3.77966 -4.16302
633 2 -0.579884 11.3901 11.5158
466 1 18.0973 19.5624 -5.77601
161 2 -2.94647 14.4846 11.1244
860 2 19.3978 42.1602 15.1792
497 2 -0.0582281 33.163 16.7398
590 2 14.6247 18.9924 13.7726
718 1 14.684 17.0512 13.9688
912 2 -6.14174 13.0227 21.3934
387 2 -0.130722 37.0969 12.4403
995 2 18.23 -9.28041 16.6223
390 2 21.1419 32.8196 -1.46431
359 2 16.6607 14.9204 11.6319
1021 1 -1.12191 -5.0154 -3.60262
1023 2 -0.768234 -4.49216 -4.37795
137 2 -1.45225 18.2379 12.4735
136 1 -1.1946 19.1632 12.1953
928 1 15.3955 -1.69194 20.0748
930 2 16.1504 -2.10808 19.5678
502 1 19.7256 12.0236 20.4225
720 2 15.3741 16.3278 13.9901
60 2 -1.1797 15.3552 20.9902
833 2 41.203 18.399 -1.89533
468 2 18.1865 19.8743 -4.8301
190 1 15.4568 39.9772 -5.30578
138 2 -1.36886 19.7982 12.9479
350 2 -4.01303 15.0883 16.3252