LAMMPS (29 Sep 2021 - Update 2)
OMP_NUM_THREADS environment is not set. Defaulting to 1 thread. (src/comm.cpp:98)
  using 1 OpenMP thread(s) per MPI task
Reading data file ...
  orthogonal box = (1.3229379 1.3229379 1.3229379) to (23.177062 23.177062 23.177062)
  1 by 2 by 2 MPI processor grid
  reading atoms ...
  1029 atoms
  reading velocities ...
  1029 velocities
  scanning bonds ...
  2 = max bonds/atom
  scanning angles ...
  1 = max angles/atom
  reading bonds ...
  686 bonds
  reading angles ...
  343 angles
Finding 1-2 1-3 1-4 neighbors ...
  special bond factors lj:    0        0        0       
  special bond factors coul:  0        0        0       
     2 = max # of 1-2 neighbors
     1 = max # of 1-3 neighbors
     1 = max # of 1-4 neighbors
     2 = max # of special neighbors
  special bonds CPU = 0.000 seconds
  read_data CPU = 0.009 seconds
1029 atoms in group spce
Finding SHAKE clusters ...
       0 = # of size 2 clusters
       0 = # of size 3 clusters
       0 = # of size 4 clusters
     343 = # of frozen angles
  find clusters CPU = 0.000 seconds
PPPM initialization ...
  using 12-bit tables for long-range coulomb (src/kspace.cpp:340)
  G vector (1/distance) = 0.26888919
  grid = 12 12 12
  stencil order = 5
  estimated absolute RMS force accuracy = 0.024266953
  estimated relative force accuracy = 7.3079208e-05
  using double precision FFTW3
  3d grid and FFT values/proc = 3211 432
Neighbor list info ...
  update every 1 steps, delay 10 steps, check yes
  max neighbors/atom: 2000, page size: 100000
  master list distance cutoff = 12
  ghost atom cutoff = 12
  binsize = 6, bins = 4 4 4
  1 neighbor lists, perpetual/occasional/extra = 1 0 0
  (1) pair lj/charmm/coul/long, perpetual
      attributes: half, newton on
      pair build: half/bin/newton
      stencil: half/bin/3d
      bin: standard
Setting up Verlet run ...
  Unit style    : real
  Current step  : 0
  Time step     : 1
SHAKE stats (type/ave/delta/count) on step 0
     1   0.999980  9.52885e-07     1029
     1   109.470   8.53098e-05      343
Per MPI rank memory allocation (min/avg/max) = 9.652 | 9.749 | 10.03 Mbytes
---------------- Step        0 ----- CPU =      0.0000 (sec) ----------------
TotEng   =     -3161.7020 Temp     =       308.4835 KinEng   =       629.8785 
PotEng   =     -3791.5805 E_bond   =         0.0000 E_angle  =         0.0000 
E_vdwl   =       788.7745 E_coul   =     14028.7527 E_long   =    -18609.1077 
Press    =       921.5530 
SHAKE stats (type/ave/delta/count) on step 100
     1   1.00000   1.79781e-06     1029
     1   109.470   0.000178757      343
---------------- Step      100 ----- CPU =      0.3392 (sec) ----------------
TotEng   =     -3187.9634 Temp     =       288.0788 KinEng   =       588.2151 
PotEng   =     -3776.1784 E_bond   =         0.0000 E_angle  =         0.0000 
E_vdwl   =       786.0162 E_coul   =     14046.6589 E_long   =    -18608.8536 
Press    =      1019.9379 
SHAKE stats (type/ave/delta/count) on step 200
     1   1.00000   1.38601e-06     1029
     1   109.470   0.000106965      343
---------------- Step      200 ----- CPU =      0.6054 (sec) ----------------
TotEng   =     -3213.5683 Temp     =       303.9174 KinEng   =       620.5553 
PotEng   =     -3834.1237 E_bond   =         0.0000 E_angle  =         0.0000 
E_vdwl   =       754.2662 E_coul   =     14020.1088 E_long   =    -18608.4987 
Press    =       174.8194 
SHAKE stats (type/ave/delta/count) on step 300
     1   1.00000   1.07176e-06     1029
     1   109.470   8.38100e-05      343
---------------- Step      300 ----- CPU =      0.8737 (sec) ----------------
TotEng   =     -3227.5962 Temp     =       287.4703 KinEng   =       586.9726 
PotEng   =     -3814.5688 E_bond   =         0.0000 E_angle  =         0.0000 
E_vdwl   =       722.4354 E_coul   =     14072.8669 E_long   =    -18609.8711 
Press    =      -494.1125 
SHAKE stats (type/ave/delta/count) on step 400
     1   1.00000   1.16731e-06     1029
     1   109.470   8.89734e-05      343
---------------- Step      400 ----- CPU =      1.2266 (sec) ----------------
TotEng   =     -3216.3194 Temp     =       292.3901 KinEng   =       597.0182 
PotEng   =     -3813.3376 E_bond   =         0.0000 E_angle  =         0.0000 
E_vdwl   =       747.2085 E_coul   =     14046.6011 E_long   =    -18607.1472 
Press    =      -133.5105 
SHAKE stats (type/ave/delta/count) on step 500
     1   1.00000   1.02014e-06     1029
     1   109.470   0.000106485      343
---------------- Step      500 ----- CPU =      1.5061 (sec) ----------------
TotEng   =     -3204.4812 Temp     =       295.7809 KinEng   =       603.9417 
PotEng   =     -3808.4229 E_bond   =         0.0000 E_angle  =         0.0000 
E_vdwl   =       713.3923 E_coul   =     14086.5961 E_long   =    -18608.4113 
Press    =      -671.2608 
SHAKE stats (type/ave/delta/count) on step 600
     1   1.00000   1.04198e-06     1029
     1   109.470   0.000133562      343
---------------- Step      600 ----- CPU =      1.7578 (sec) ----------------
TotEng   =     -3184.0810 Temp     =       310.3501 KinEng   =       633.6898 
PotEng   =     -3817.7708 E_bond   =         0.0000 E_angle  =         0.0000 
E_vdwl   =       799.8914 E_coul   =     13990.3340 E_long   =    -18607.9962 
Press    =      1034.1458 
SHAKE stats (type/ave/delta/count) on step 700
     1   1.00000   1.89380e-06     1029
     1   109.470   0.000126104      343
---------------- Step      700 ----- CPU =      1.9890 (sec) ----------------
TotEng   =     -3154.8568 Temp     =       301.1495 KinEng   =       614.9036 
PotEng   =     -3769.7604 E_bond   =         0.0000 E_angle  =         0.0000 
E_vdwl   =       658.5112 E_coul   =     14178.9129 E_long   =    -18607.1845 
Press    =     -1481.1246 
SHAKE stats (type/ave/delta/count) on step 800
     1   1.00000   1.01185e-06     1029
     1   109.470   9.06378e-05      343
---------------- Step      800 ----- CPU =      2.2389 (sec) ----------------
TotEng   =     -3127.3543 Temp     =       311.6468 KinEng   =       636.3374 
PotEng   =     -3763.6918 E_bond   =         0.0000 E_angle  =         0.0000 
E_vdwl   =       748.3304 E_coul   =     14095.9108 E_long   =    -18607.9330 
Press    =       366.6572 
SHAKE stats (type/ave/delta/count) on step 900
     1   1.00000   1.73102e-06     1029
     1   109.470   0.000159082      343
---------------- Step      900 ----- CPU =      2.5362 (sec) ----------------
TotEng   =     -3148.7546 Temp     =       309.6671 KinEng   =       632.2953 
PotEng   =     -3781.0500 E_bond   =         0.0000 E_angle  =         0.0000 
E_vdwl   =       791.9514 E_coul   =     14036.1263 E_long   =    -18609.1276 
Press    =      1235.8456 
SHAKE stats (type/ave/delta/count) on step 1000
     1   1.00000   1.52903e-06     1029
     1   109.470   0.000128297      343
---------------- Step     1000 ----- CPU =      2.8095 (sec) ----------------
TotEng   =     -3183.7153 Temp     =       295.8445 KinEng   =       604.0715 
PotEng   =     -3787.7868 E_bond   =         0.0000 E_angle  =         0.0000 
E_vdwl   =       782.8040 E_coul   =     14037.8158 E_long   =    -18608.4065 
Press    =      1039.6089 
SHAKE stats (type/ave/delta/count) on step 1100
     1   1.00000   9.54007e-07     1029
     1   109.470   9.10191e-05      343
---------------- Step     1100 ----- CPU =      3.0418 (sec) ----------------
TotEng   =     -3197.4716 Temp     =       301.0926 KinEng   =       614.7873 
PotEng   =     -3812.2589 E_bond   =         0.0000 E_angle  =         0.0000 
E_vdwl   =       732.2745 E_coul   =     14064.2734 E_long   =    -18608.8068 
Press    =      -269.2585 
SHAKE stats (type/ave/delta/count) on step 1200
     1   1.00000   1.30497e-06     1029
     1   109.470   0.000127466      343
---------------- Step     1200 ----- CPU =      3.2736 (sec) ----------------
TotEng   =     -3212.8065 Temp     =       305.5620 KinEng   =       623.9133 
PotEng   =     -3836.7198 E_bond   =         0.0000 E_angle  =         0.0000 
E_vdwl   =       748.2862 E_coul   =     14026.4513 E_long   =    -18611.4573 
Press    =       -22.3786 
SHAKE stats (type/ave/delta/count) on step 1300
     1   1.00000   1.26087e-06     1029
     1   109.470   0.000100317      343
---------------- Step     1300 ----- CPU =      3.5117 (sec) ----------------
TotEng   =     -3230.1875 Temp     =       287.2995 KinEng   =       586.6238 
PotEng   =     -3816.8113 E_bond   =         0.0000 E_angle  =         0.0000 
E_vdwl   =       828.3856 E_coul   =     13962.6170 E_long   =    -18607.8140 
Press    =      1721.4379 
SHAKE stats (type/ave/delta/count) on step 1400
     1   1.00000   1.49719e-06     1029
     1   109.470   0.000108242      343
---------------- Step     1400 ----- CPU =      3.8347 (sec) ----------------
TotEng   =     -3248.5228 Temp     =       289.0998 KinEng   =       590.2998 
PotEng   =     -3838.8227 E_bond   =         0.0000 E_angle  =         0.0000 
E_vdwl   =       776.9526 E_coul   =     13994.0050 E_long   =    -18609.7802 
Press    =       478.4285 
SHAKE stats (type/ave/delta/count) on step 1500
     1   1.00000   1.34253e-06     1029
     1   109.470   0.000102825      343
---------------- Step     1500 ----- CPU =      4.1116 (sec) ----------------
TotEng   =     -3251.9032 Temp     =       298.4832 KinEng   =       609.4594 
PotEng   =     -3861.3626 E_bond   =         0.0000 E_angle  =         0.0000 
E_vdwl   =       810.4548 E_coul   =     13934.6348 E_long   =    -18606.4522 
Press    =       881.0628 
SHAKE stats (type/ave/delta/count) on step 1600
     1   1.00000   1.52036e-06     1029
     1   109.470   0.000139753      343
---------------- Step     1600 ----- CPU =      4.3704 (sec) ----------------
TotEng   =     -3225.6642 Temp     =       310.2161 KinEng   =       633.4163 
PotEng   =     -3859.0805 E_bond   =         0.0000 E_angle  =         0.0000 
E_vdwl   =       707.3041 E_coul   =     14039.1031 E_long   =    -18605.4877 
Press    =     -1013.9839 
SHAKE stats (type/ave/delta/count) on step 1700
     1   1.00000   1.11993e-06     1029
     1   109.470   0.000119848      343
---------------- Step     1700 ----- CPU =      4.6449 (sec) ----------------
TotEng   =     -3193.1163 Temp     =       300.4513 KinEng   =       613.4779 
PotEng   =     -3806.5942 E_bond   =         0.0000 E_angle  =         0.0000 
E_vdwl   =       755.8331 E_coul   =     14042.4632 E_long   =    -18604.8906 
Press    =       336.7924 
SHAKE stats (type/ave/delta/count) on step 1800
     1   1.00000   9.98276e-07     1029
     1   109.470   8.97677e-05      343
---------------- Step     1800 ----- CPU =      4.9373 (sec) ----------------
TotEng   =     -3181.2590 Temp     =       296.6859 KinEng   =       605.7896 
PotEng   =     -3787.0486 E_bond   =         0.0000 E_angle  =         0.0000 
E_vdwl   =       763.5468 E_coul   =     14056.6719 E_long   =    -18607.2673 
Press    =       599.5803 
SHAKE stats (type/ave/delta/count) on step 1900
     1   1.00000   2.17076e-06     1029
     1   109.470   0.000206255      343
---------------- Step     1900 ----- CPU =      5.1787 (sec) ----------------
TotEng   =     -3201.3135 Temp     =       296.7146 KinEng   =       605.8482 
PotEng   =     -3807.1617 E_bond   =         0.0000 E_angle  =         0.0000 
E_vdwl   =       775.9767 E_coul   =     14026.5128 E_long   =    -18609.6513 
Press    =       603.0866 
SHAKE stats (type/ave/delta/count) on step 2000
     1   1.00000   1.53098e-06     1029
     1   109.470   0.000113613      343
---------------- Step     2000 ----- CPU =      5.4212 (sec) ----------------
TotEng   =     -3244.0370 Temp     =       289.2246 KinEng   =       590.5546 
PotEng   =     -3834.5916 E_bond   =         0.0000 E_angle  =         0.0000 
E_vdwl   =       706.6370 E_coul   =     14069.0986 E_long   =    -18610.3273 
Press    =     -1099.1464 
SHAKE stats (type/ave/delta/count) on step 2100
     1   1.00000   1.62985e-06     1029
     1   109.470   0.000133820      343
---------------- Step     2100 ----- CPU =      5.6773 (sec) ----------------
TotEng   =     -3234.2143 Temp     =       279.9231 KinEng   =       571.5624 
PotEng   =     -3805.7767 E_bond   =         0.0000 E_angle  =         0.0000 
E_vdwl   =       743.8602 E_coul   =     14058.7394 E_long   =    -18608.3763 
Press    =        15.8812 
SHAKE stats (type/ave/delta/count) on step 2200
     1   1.00000   1.05495e-06     1029
     1   109.470   9.25563e-05      343
---------------- Step     2200 ----- CPU =      5.9199 (sec) ----------------
TotEng   =     -3196.3432 Temp     =       318.8823 KinEng   =       651.1114 
PotEng   =     -3847.4546 E_bond   =         0.0000 E_angle  =         0.0000 
E_vdwl   =       753.7070 E_coul   =     14007.8511 E_long   =    -18609.0127 
Press    =      -117.2903 
SHAKE stats (type/ave/delta/count) on step 2300
     1   1.00000   1.22916e-06     1029
     1   109.470   9.91382e-05      343
---------------- Step     2300 ----- CPU =      6.1717 (sec) ----------------
TotEng   =     -3200.5338 Temp     =       299.5044 KinEng   =       611.5446 
PotEng   =     -3812.0784 E_bond   =         0.0000 E_angle  =         0.0000 
E_vdwl   =       707.3850 E_coul   =     14085.8130 E_long   =    -18605.2764 
Press    =      -806.3819 
SHAKE stats (type/ave/delta/count) on step 2400
     1   1.00000   1.05686e-06     1029
     1   109.470   9.08658e-05      343
---------------- Step     2400 ----- CPU =      6.4179 (sec) ----------------
TotEng   =     -3206.6427 Temp     =       281.7114 KinEng   =       575.2139 
PotEng   =     -3781.8566 E_bond   =         0.0000 E_angle  =         0.0000 
E_vdwl   =       704.9684 E_coul   =     14120.5029 E_long   =    -18607.3278 
Press    =      -655.2692 
SHAKE stats (type/ave/delta/count) on step 2500
     1   1.00000   1.64152e-06     1029
     1   109.470   0.000130567      343
---------------- Step     2500 ----- CPU =      6.6727 (sec) ----------------
TotEng   =     -3180.0037 Temp     =       310.6904 KinEng   =       634.3846 
PotEng   =     -3814.3883 E_bond   =         0.0000 E_angle  =         0.0000 
E_vdwl   =       753.6372 E_coul   =     14037.7204 E_long   =    -18605.7459 
Press    =       328.4732 
SHAKE stats (type/ave/delta/count) on step 2600
     1   1.00000   1.39305e-06     1029
     1   109.470   8.90133e-05      343
---------------- Step     2600 ----- CPU =      6.9441 (sec) ----------------
TotEng   =     -3154.7178 Temp     =       319.7971 KinEng   =       652.9793 
PotEng   =     -3807.6971 E_bond   =         0.0000 E_angle  =         0.0000 
E_vdwl   =       795.9049 E_coul   =     14005.6320 E_long   =    -18609.2339 
Press    =      1089.7184 
SHAKE stats (type/ave/delta/count) on step 2700
     1   1.00000   1.74962e-06     1029
     1   109.470   0.000147683      343
---------------- Step     2700 ----- CPU =      7.2640 (sec) ----------------
TotEng   =     -3178.5145 Temp     =       291.2313 KinEng   =       594.6520 
PotEng   =     -3773.1665 E_bond   =         0.0000 E_angle  =         0.0000 
E_vdwl   =       768.4492 E_coul   =     14068.0630 E_long   =    -18609.6787 
Press    =       880.7516 
SHAKE stats (type/ave/delta/count) on step 2800
     1   1.00000   1.44399e-06     1029
     1   109.470   0.000148920      343
---------------- Step     2800 ----- CPU =      7.5263 (sec) ----------------
TotEng   =     -3228.6007 Temp     =       288.6778 KinEng   =       589.4383 
PotEng   =     -3818.0390 E_bond   =         0.0000 E_angle  =         0.0000 
E_vdwl   =       762.2888 E_coul   =     14029.7699 E_long   =    -18610.0977 
Press    =       264.8787 
SHAKE stats (type/ave/delta/count) on step 2900
     1   1.00000   1.11702e-06     1029
     1   109.470   9.61143e-05      343
---------------- Step     2900 ----- CPU =      7.7810 (sec) ----------------
TotEng   =     -3226.7579 Temp     =       298.2472 KinEng   =       608.9775 
PotEng   =     -3835.7354 E_bond   =         0.0000 E_angle  =         0.0000 
E_vdwl   =       787.4827 E_coul   =     13985.4066 E_long   =    -18608.6246 
Press    =       756.7899 
SHAKE stats (type/ave/delta/count) on step 3000
     1   1.00000   1.06310e-06     1029
     1   109.470   0.000110597      343
---------------- Step     3000 ----- CPU =      8.0520 (sec) ----------------
TotEng   =     -3210.3333 Temp     =       305.5453 KinEng   =       623.8791 
PotEng   =     -3834.2124 E_bond   =         0.0000 E_angle  =         0.0000 
E_vdwl   =       744.8731 E_coul   =     14031.3466 E_long   =    -18610.4321 
Press    =      -246.7403 
SHAKE stats (type/ave/delta/count) on step 3100
     1   1.00000   1.24330e-06     1029
     1   109.470   9.92460e-05      343
---------------- Step     3100 ----- CPU =      8.3174 (sec) ----------------
TotEng   =     -3197.3438 Temp     =       304.9600 KinEng   =       622.6842 
PotEng   =     -3820.0279 E_bond   =         0.0000 E_angle  =         0.0000 
E_vdwl   =       732.7774 E_coul   =     14056.6342 E_long   =    -18609.4395 
Press    =      -313.6033 
SHAKE stats (type/ave/delta/count) on step 3200
     1   1.00000   1.20476e-06     1029
     1   109.470   0.000107973      343
---------------- Step     3200 ----- CPU =      8.5868 (sec) ----------------
TotEng   =     -3173.6628 Temp     =       311.9889 KinEng   =       637.0360 
PotEng   =     -3810.6988 E_bond   =         0.0000 E_angle  =         0.0000 
E_vdwl   =       768.4434 E_coul   =     14031.5133 E_long   =    -18610.6555 
Press    =       543.6473 
SHAKE stats (type/ave/delta/count) on step 3300
     1   1.00000   1.49740e-06     1029
     1   109.470   0.000128390      343
---------------- Step     3300 ----- CPU =      8.8514 (sec) ----------------
TotEng   =     -3175.6225 Temp     =       310.4189 KinEng   =       633.8303 
PotEng   =     -3809.4529 E_bond   =         0.0000 E_angle  =         0.0000 
E_vdwl   =       723.1277 E_coul   =     14078.9667 E_long   =    -18611.5472 
Press    =      -442.5343 
SHAKE stats (type/ave/delta/count) on step 3400
     1   1.00000   1.47544e-06     1029
     1   109.470   0.000121131      343
---------------- Step     3400 ----- CPU =      9.1239 (sec) ----------------
TotEng   =     -3218.4418 Temp     =       290.6677 KinEng   =       593.5013 
PotEng   =     -3811.9431 E_bond   =         0.0000 E_angle  =         0.0000 
E_vdwl   =       722.6776 E_coul   =     14075.4787 E_long   =    -18610.0994 
Press    =      -567.9304 
SHAKE stats (type/ave/delta/count) on step 3500
     1   1.00000   9.22117e-07     1029
     1   109.470   9.08246e-05      343
---------------- Step     3500 ----- CPU =      9.3797 (sec) ----------------
TotEng   =     -3225.5645 Temp     =       293.5764 KinEng   =       599.4404 
PotEng   =     -3825.0049 E_bond   =         0.0000 E_angle  =         0.0000 
E_vdwl   =       734.1054 E_coul   =     14052.3125 E_long   =    -18611.4228 
Press    =      -489.0467 
SHAKE stats (type/ave/delta/count) on step 3600
     1   1.00000   1.56413e-06     1029
     1   109.470   0.000119757      343
---------------- Step     3600 ----- CPU =      9.6423 (sec) ----------------
TotEng   =     -3207.9224 Temp     =       291.7140 KinEng   =       595.6376 
PotEng   =     -3803.5600 E_bond   =         0.0000 E_angle  =         0.0000 
E_vdwl   =       785.5516 E_coul   =     14018.2005 E_long   =    -18607.3121 
Press    =       677.4414 
SHAKE stats (type/ave/delta/count) on step 3700
     1   1.00000   1.20411e-06     1029
     1   109.470   0.000156190      343
---------------- Step     3700 ----- CPU =      9.9160 (sec) ----------------
TotEng   =     -3172.7504 Temp     =       316.3227 KinEng   =       645.8851 
PotEng   =     -3818.6355 E_bond   =         0.0000 E_angle  =         0.0000 
E_vdwl   =       758.6072 E_coul   =     14029.2402 E_long   =    -18606.4829 
Press    =       187.5654 
SHAKE stats (type/ave/delta/count) on step 3800
     1   1.00000   1.42219e-06     1029
     1   109.470   0.000112603      343
---------------- Step     3800 ----- CPU =     10.2372 (sec) ----------------
TotEng   =     -3133.7243 Temp     =       318.5075 KinEng   =       650.3460 
PotEng   =     -3784.0703 E_bond   =         0.0000 E_angle  =         0.0000 
E_vdwl   =       733.8712 E_coul   =     14093.0613 E_long   =    -18611.0028 
Press    =       106.9181 
SHAKE stats (type/ave/delta/count) on step 3900
     1   1.00000   1.64253e-06     1029
     1   109.470   0.000154951      343
---------------- Step     3900 ----- CPU =     10.5182 (sec) ----------------
TotEng   =     -3121.0812 Temp     =       323.1695 KinEng   =       659.8652 
PotEng   =     -3780.9464 E_bond   =         0.0000 E_angle  =         0.0000 
E_vdwl   =       668.8984 E_coul   =     14159.2024 E_long   =    -18609.0473 
Press    =     -1220.0623 
SHAKE stats (type/ave/delta/count) on step 4000
     1   1.00000   1.72560e-06     1029
     1   109.470   0.000183483      343
---------------- Step     4000 ----- CPU =     10.8303 (sec) ----------------
TotEng   =     -3168.7906 Temp     =       304.2156 KinEng   =       621.1640 
PotEng   =     -3789.9546 E_bond   =         0.0000 E_angle  =         0.0000 
E_vdwl   =       711.3566 E_coul   =     14107.6149 E_long   =    -18608.9261 
Press    =      -594.8375 
SHAKE stats (type/ave/delta/count) on step 4100
     1   1.00000   1.00664e-06     1029
     1   109.470   8.81145e-05      343
---------------- Step     4100 ----- CPU =     11.1072 (sec) ----------------
TotEng   =     -3188.0417 Temp     =       306.0752 KinEng   =       624.9612 
PotEng   =     -3813.0029 E_bond   =         0.0000 E_angle  =         0.0000 
E_vdwl   =       750.6601 E_coul   =     14045.9528 E_long   =    -18609.6158 
Press    =       -33.0132 
SHAKE stats (type/ave/delta/count) on step 4200
     1   1.00000   1.25739e-06     1029
     1   109.470   9.35126e-05      343
---------------- Step     4200 ----- CPU =     11.3347 (sec) ----------------
TotEng   =     -3190.0708 Temp     =       298.2200 KinEng   =       608.9219 
PotEng   =     -3798.9928 E_bond   =         0.0000 E_angle  =         0.0000 
E_vdwl   =       745.6221 E_coul   =     14064.9970 E_long   =    -18609.6119 
Press    =       123.1120 
SHAKE stats (type/ave/delta/count) on step 4300
     1   1.00000   1.97529e-06     1029
     1   109.470   0.000145298      343
---------------- Step     4300 ----- CPU =     11.6146 (sec) ----------------
TotEng   =     -3218.5291 Temp     =       298.7607 KinEng   =       610.0260 
PotEng   =     -3828.5551 E_bond   =         0.0000 E_angle  =         0.0000 
E_vdwl   =       699.6789 E_coul   =     14083.0691 E_long   =    -18611.3031 
Press    =      -978.9667 
SHAKE stats (type/ave/delta/count) on step 4400
     1   1.00000   1.36332e-06     1029
     1   109.470   0.000105136      343
---------------- Step     4400 ----- CPU =     11.8760 (sec) ----------------
TotEng   =     -3262.0981 Temp     =       276.8541 KinEng   =       565.2959 
PotEng   =     -3827.3940 E_bond   =         0.0000 E_angle  =         0.0000 
E_vdwl   =       757.6070 E_coul   =     14024.6692 E_long   =    -18609.6702 
Press    =      -156.5513 
SHAKE stats (type/ave/delta/count) on step 4500
     1   1.00000   1.08782e-06     1029
     1   109.470   9.51881e-05      343
---------------- Step     4500 ----- CPU =     12.1265 (sec) ----------------
TotEng   =     -3255.5378 Temp     =       292.7550 KinEng   =       597.7632 
PotEng   =     -3853.3010 E_bond   =         0.0000 E_angle  =         0.0000 
E_vdwl   =       805.8986 E_coul   =     13951.6002 E_long   =    -18610.7998 
Press    =       722.3463 
SHAKE stats (type/ave/delta/count) on step 4600
     1   1.00000   1.17917e-06     1029
     1   109.470   8.62237e-05      343
---------------- Step     4600 ----- CPU =     12.3941 (sec) ----------------
TotEng   =     -3239.7927 Temp     =       302.6868 KinEng   =       618.0426 
PotEng   =     -3857.8353 E_bond   =         0.0000 E_angle  =         0.0000 
E_vdwl   =       776.3063 E_coul   =     13977.8784 E_long   =    -18612.0200 
Press    =       334.8126 
SHAKE stats (type/ave/delta/count) on step 4700
     1   1.00000   1.34421e-06     1029
     1   109.470   8.95562e-05      343
---------------- Step     4700 ----- CPU =     12.6526 (sec) ----------------
TotEng   =     -3227.7801 Temp     =       306.0219 KinEng   =       624.8524 
PotEng   =     -3852.6325 E_bond   =         0.0000 E_angle  =         0.0000 
E_vdwl   =       768.5778 E_coul   =     13990.1051 E_long   =    -18611.3155 
Press    =       -25.5314 
SHAKE stats (type/ave/delta/count) on step 4800
     1   1.00000   1.04180e-06     1029
     1   109.470   0.000119594      343
---------------- Step     4800 ----- CPU =     12.9309 (sec) ----------------
TotEng   =     -3207.9144 Temp     =       290.2740 KinEng   =       592.6975 
PotEng   =     -3800.6119 E_bond   =         0.0000 E_angle  =         0.0000 
E_vdwl   =       686.5904 E_coul   =     14120.8445 E_long   =    -18608.0468 
Press    =     -1130.4964 
SHAKE stats (type/ave/delta/count) on step 4900
     1   1.00000   1.30716e-06     1029
     1   109.470   0.000100040      343
---------------- Step     4900 ----- CPU =     13.1971 (sec) ----------------
TotEng   =     -3172.4790 Temp     =       300.4502 KinEng   =       613.4757 
PotEng   =     -3785.9547 E_bond   =         0.0000 E_angle  =         0.0000 
E_vdwl   =       745.7004 E_coul   =     14077.0114 E_long   =    -18608.6666 
Press    =       181.9554 
SHAKE stats (type/ave/delta/count) on step 5000
     1   1.00000   1.04024e-06     1029
     1   109.470   8.06689e-05      343
---------------- Step     5000 ----- CPU =     13.4398 (sec) ----------------
TotEng   =     -3165.1205 Temp     =       304.5714 KinEng   =       621.8906 
PotEng   =     -3787.0111 E_bond   =         0.0000 E_angle  =         0.0000 
E_vdwl   =       723.8779 E_coul   =     14099.0900 E_long   =    -18609.9790 
Press    =      -258.9708 
SHAKE stats (type/ave/delta/count) on step 5100
     1   1.00000   1.05295e-06     1029
     1   109.470   7.39979e-05      343
---------------- Step     5100 ----- CPU =     13.7064 (sec) ----------------
TotEng   =     -3165.6436 Temp     =       316.1195 KinEng   =       645.4701 
PotEng   =     -3811.1137 E_bond   =         0.0000 E_angle  =         0.0000 
E_vdwl   =       743.2280 E_coul   =     14055.7449 E_long   =    -18610.0867 
Press    =        19.1835 
SHAKE stats (type/ave/delta/count) on step 5200
     1   1.00000   1.75671e-06     1029
     1   109.470   0.000129659      343
---------------- Step     5200 ----- CPU =     13.9490 (sec) ----------------
TotEng   =     -3188.4977 Temp     =       302.1254 KinEng   =       616.8962 
PotEng   =     -3805.3939 E_bond   =         0.0000 E_angle  =         0.0000 
E_vdwl   =       785.2021 E_coul   =     14018.8890 E_long   =    -18609.4851 
Press    =       868.3280 
SHAKE stats (type/ave/delta/count) on step 5300
     1   1.00000   2.04336e-06     1029
     1   109.470   0.000121708      343
---------------- Step     5300 ----- CPU =     14.1932 (sec) ----------------
TotEng   =     -3219.0656 Temp     =       307.6306 KinEng   =       628.1371 
PotEng   =     -3847.2027 E_bond   =         0.0000 E_angle  =         0.0000 
E_vdwl   =       761.7479 E_coul   =     14001.4285 E_long   =    -18610.3791 
Press    =        41.4867 
SHAKE stats (type/ave/delta/count) on step 5400
     1   1.00000   1.10935e-06     1029
     1   109.470   8.38676e-05      343
---------------- Step     5400 ----- CPU =     14.4631 (sec) ----------------
TotEng   =     -3230.5095 Temp     =       305.6277 KinEng   =       624.0475 
PotEng   =     -3854.5570 E_bond   =         0.0000 E_angle  =         0.0000 
E_vdwl   =       758.0241 E_coul   =     13994.9928 E_long   =    -18607.5738 
Press    =       -53.9825 
SHAKE stats (type/ave/delta/count) on step 5500
     1   1.00000   1.00959e-06     1029
     1   109.470   0.000104745      343
---------------- Step     5500 ----- CPU =     14.7048 (sec) ----------------
TotEng   =     -3226.2312 Temp     =       302.8292 KinEng   =       618.3332 
PotEng   =     -3844.5644 E_bond   =         0.0000 E_angle  =         0.0000 
E_vdwl   =       852.8375 E_coul   =     13912.4327 E_long   =    -18609.8347 
Press    =      1835.1121 
SHAKE stats (type/ave/delta/count) on step 5600
     1   1.00000   1.12115e-06     1029
     1   109.470   8.70285e-05      343
---------------- Step     5600 ----- CPU =     14.9655 (sec) ----------------
TotEng   =     -3220.0298 Temp     =       311.6932 KinEng   =       636.4323 
PotEng   =     -3856.4621 E_bond   =         0.0000 E_angle  =         0.0000 
E_vdwl   =       818.3115 E_coul   =     13933.8391 E_long   =    -18608.6126 
Press    =      1402.6390 
SHAKE stats (type/ave/delta/count) on step 5700
     1   1.00000   1.97484e-06     1029
     1   109.470   0.000115552      343
---------------- Step     5700 ----- CPU =     15.2764 (sec) ----------------
TotEng   =     -3247.3288 Temp     =       282.3313 KinEng   =       576.4795 
PotEng   =     -3823.8082 E_bond   =         0.0000 E_angle  =         0.0000 
E_vdwl   =       777.1356 E_coul   =     14009.0826 E_long   =    -18610.0265 
Press    =       362.8425 
SHAKE stats (type/ave/delta/count) on step 5800
     1   1.00000   1.16638e-06     1029
     1   109.470   8.07296e-05      343
---------------- Step     5800 ----- CPU =     15.5628 (sec) ----------------
TotEng   =     -3261.5513 Temp     =       285.4945 KinEng   =       582.9384 
PotEng   =     -3844.4897 E_bond   =         0.0000 E_angle  =         0.0000 
E_vdwl   =       791.5662 E_coul   =     13974.3710 E_long   =    -18610.4269 
Press    =       510.9214 
SHAKE stats (type/ave/delta/count) on step 5900
     1   1.00000   1.67292e-06     1029
     1   109.470   0.000193770      343
---------------- Step     5900 ----- CPU =     15.8161 (sec) ----------------
TotEng   =     -3207.8430 Temp     =       297.8061 KinEng   =       608.0769 
PotEng   =     -3815.9199 E_bond   =         0.0000 E_angle  =         0.0000 
E_vdwl   =       761.2709 E_coul   =     14031.5959 E_long   =    -18608.7868 
Press    =       144.5085 
SHAKE stats (type/ave/delta/count) on step 6000
     1   1.00000   1.04914e-06     1029
     1   109.470   9.35560e-05      343
---------------- Step     6000 ----- CPU =     16.0848 (sec) ----------------
TotEng   =     -3185.2047 Temp     =       294.3239 KinEng   =       600.9668 
PotEng   =     -3786.1715 E_bond   =         0.0000 E_angle  =         0.0000 
E_vdwl   =       754.9863 E_coul   =     14069.5505 E_long   =    -18610.7083 
Press    =       425.6592 
SHAKE stats (type/ave/delta/count) on step 6100
     1   1.00000   1.32688e-06     1029
     1   109.470   8.55124e-05      343
---------------- Step     6100 ----- CPU =     16.3715 (sec) ----------------
TotEng   =     -3177.0855 Temp     =       306.7917 KinEng   =       626.4241 
PotEng   =     -3803.5096 E_bond   =         0.0000 E_angle  =         0.0000 
E_vdwl   =       736.2650 E_coul   =     14070.2298 E_long   =    -18610.0044 
Press    =         7.5224 
SHAKE stats (type/ave/delta/count) on step 6200
     1   1.00000   2.00624e-06     1029
     1   109.470   0.000125151      343
---------------- Step     6200 ----- CPU =     16.6260 (sec) ----------------
TotEng   =     -3197.5768 Temp     =       302.8408 KinEng   =       618.3569 
PotEng   =     -3815.9336 E_bond   =         0.0000 E_angle  =         0.0000 
E_vdwl   =       747.2062 E_coul   =     14044.6911 E_long   =    -18607.8309 
Press    =        56.5191 
SHAKE stats (type/ave/delta/count) on step 6300
     1   1.00000   1.92470e-06     1029
     1   109.470   0.000124727      343
---------------- Step     6300 ----- CPU =     16.8732 (sec) ----------------
TotEng   =     -3229.9888 Temp     =       280.9529 KinEng   =       573.6650 
PotEng   =     -3803.6538 E_bond   =         0.0000 E_angle  =         0.0000 
E_vdwl   =       720.9024 E_coul   =     14083.9720 E_long   =    -18608.5282 
Press    =      -547.5849 
SHAKE stats (type/ave/delta/count) on step 6400
     1   1.00000   1.64368e-06     1029
     1   109.470   0.000102470      343
---------------- Step     6400 ----- CPU =     17.1146 (sec) ----------------
TotEng   =     -3227.3189 Temp     =       296.4786 KinEng   =       605.3663 
PotEng   =     -3832.6853 E_bond   =         0.0000 E_angle  =         0.0000 
E_vdwl   =       719.1821 E_coul   =     14057.0921 E_long   =    -18608.9594 
Press    =      -704.9001 
SHAKE stats (type/ave/delta/count) on step 6500
     1   1.00000   1.44001e-06     1029
     1   109.470   0.000114494      343
---------------- Step     6500 ----- CPU =     17.3586 (sec) ----------------
TotEng   =     -3175.2447 Temp     =       309.3882 KinEng   =       631.7258 
PotEng   =     -3806.9706 E_bond   =         0.0000 E_angle  =         0.0000 
E_vdwl   =       778.3883 E_coul   =     14020.6264 E_long   =    -18605.9853 
Press    =       785.5374 
SHAKE stats (type/ave/delta/count) on step 6600
     1   1.00000   1.12898e-06     1029
     1   109.470   8.56316e-05      343
---------------- Step     6600 ----- CPU =     17.6316 (sec) ----------------
TotEng   =     -3164.7027 Temp     =       302.1874 KinEng   =       617.0228 
PotEng   =     -3781.7254 E_bond   =         0.0000 E_angle  =         0.0000 
E_vdwl   =       780.9013 E_coul   =     14046.6021 E_long   =    -18609.2288 
Press    =       951.6270 
SHAKE stats (type/ave/delta/count) on step 6700
     1   1.00000   1.71840e-06     1029
     1   109.470   0.000135605      343
---------------- Step     6700 ----- CPU =     17.9135 (sec) ----------------
TotEng   =     -3171.8611 Temp     =       303.3951 KinEng   =       619.4888 
PotEng   =     -3791.3499 E_bond   =         0.0000 E_angle  =         0.0000 
E_vdwl   =       735.5369 E_coul   =     14080.3081 E_long   =    -18607.1949 
Press    =        13.9045 
SHAKE stats (type/ave/delta/count) on step 6800
     1   1.00000   1.10818e-06     1029
     1   109.470   0.000104583      343
---------------- Step     6800 ----- CPU =     18.1567 (sec) ----------------
TotEng   =     -3193.4292 Temp     =       284.3238 KinEng   =       580.5479 
PotEng   =     -3773.9770 E_bond   =         0.0000 E_angle  =         0.0000 
E_vdwl   =       735.0321 E_coul   =     14098.4885 E_long   =    -18607.4975 
Press    =       192.6087 
SHAKE stats (type/ave/delta/count) on step 6900
     1   1.00000   1.07110e-06     1029
     1   109.470   9.29655e-05      343
---------------- Step     6900 ----- CPU =     18.4042 (sec) ----------------
TotEng   =     -3192.3079 Temp     =       279.5031 KinEng   =       570.7048 
PotEng   =     -3763.0127 E_bond   =         0.0000 E_angle  =         0.0000 
E_vdwl   =       749.4514 E_coul   =     14094.9221 E_long   =    -18607.3862 
Press    =       520.6321 
SHAKE stats (type/ave/delta/count) on step 7000
     1   1.00000   1.14649e-06     1029
     1   109.470   0.000136731      343
---------------- Step     7000 ----- CPU =     18.6484 (sec) ----------------
TotEng   =     -3140.3719 Temp     =       313.3641 KinEng   =       639.8440 
PotEng   =     -3780.2159 E_bond   =         0.0000 E_angle  =         0.0000 
E_vdwl   =       740.3440 E_coul   =     14088.9224 E_long   =    -18609.4823 
Press    =       337.3457 
SHAKE stats (type/ave/delta/count) on step 7100
     1   1.00000   1.86805e-06     1029
     1   109.470   0.000134259      343
---------------- Step     7100 ----- CPU =     18.8861 (sec) ----------------
TotEng   =     -3144.3450 Temp     =       311.7704 KinEng   =       636.5899 
PotEng   =     -3780.9349 E_bond   =         0.0000 E_angle  =         0.0000 
E_vdwl   =       771.7618 E_coul   =     14056.6040 E_long   =    -18609.3008 
Press    =       953.0619 
SHAKE stats (type/ave/delta/count) on step 7200
     1   1.00000   1.39627e-06     1029
     1   109.470   0.000110627      343
---------------- Step     7200 ----- CPU =     19.1921 (sec) ----------------
TotEng   =     -3178.4656 Temp     =       296.9932 KinEng   =       606.4170 
PotEng   =     -3784.8826 E_bond   =         0.0000 E_angle  =         0.0000 
E_vdwl   =       676.1606 E_coul   =     14147.1758 E_long   =    -18608.2190 
Press    =     -1066.6733 
SHAKE stats (type/ave/delta/count) on step 7300
     1   1.00000   1.00278e-06     1029
     1   109.470   8.74548e-05      343
---------------- Step     7300 ----- CPU =     19.4662 (sec) ----------------
TotEng   =     -3178.6225 Temp     =       290.9093 KinEng   =       593.9945 
PotEng   =     -3772.6170 E_bond   =         0.0000 E_angle  =         0.0000 
E_vdwl   =       737.0374 E_coul   =     14099.4563 E_long   =    -18609.1107 
Press    =       213.1919 
SHAKE stats (type/ave/delta/count) on step 7400
     1   1.00000   9.18982e-07     1029
     1   109.470   8.70021e-05      343
---------------- Step     7400 ----- CPU =     19.7134 (sec) ----------------
TotEng   =     -3168.5106 Temp     =       298.5532 KinEng   =       609.6023 
PotEng   =     -3778.1129 E_bond   =         0.0000 E_angle  =         0.0000 
E_vdwl   =       699.9078 E_coul   =     14129.8444 E_long   =    -18607.8650 
Press    =      -534.0002 
SHAKE stats (type/ave/delta/count) on step 7500
     1   1.00000   1.05666e-06     1029
     1   109.470   0.000103833      343
---------------- Step     7500 ----- CPU =     19.9583 (sec) ----------------
TotEng   =     -3153.9758 Temp     =       309.7317 KinEng   =       632.4271 
PotEng   =     -3786.4029 E_bond   =         0.0000 E_angle  =         0.0000 
E_vdwl   =       773.0563 E_coul   =     14051.2329 E_long   =    -18610.6921 
Press    =       825.1443 
SHAKE stats (type/ave/delta/count) on step 7600
     1   1.00000   2.85708e-06     1029
     1   109.470   0.000180089      343
---------------- Step     7600 ----- CPU =     20.2185 (sec) ----------------
TotEng   =     -3121.2713 Temp     =       315.9514 KinEng   =       645.1270 
PotEng   =     -3766.3983 E_bond   =         0.0000 E_angle  =         0.0000 
E_vdwl   =       700.2059 E_coul   =     14139.2766 E_long   =    -18605.8808 
Press    =      -285.9351 
SHAKE stats (type/ave/delta/count) on step 7700
     1   1.00000   1.45568e-06     1029
     1   109.470   0.000112708      343
---------------- Step     7700 ----- CPU =     20.4576 (sec) ----------------
TotEng   =     -3095.8645 Temp     =       308.9339 KinEng   =       630.7982 
PotEng   =     -3726.6627 E_bond   =         0.0000 E_angle  =         0.0000 
E_vdwl   =       710.7032 E_coul   =     14170.3201 E_long   =    -18607.6860 
Press    =       195.8282 
SHAKE stats (type/ave/delta/count) on step 7800
     1   1.00000   1.80479e-06     1029
     1   109.470   0.000146453      343
---------------- Step     7800 ----- CPU =     20.7060 (sec) ----------------
TotEng   =     -3142.0022 Temp     =       306.5834 KinEng   =       625.9989 
PotEng   =     -3768.0011 E_bond   =         0.0000 E_angle  =         0.0000 
E_vdwl   =       702.9024 E_coul   =     14139.3005 E_long   =    -18610.2039 
Press    =      -209.5557 
SHAKE stats (type/ave/delta/count) on step 7900
     1   1.00000   1.47244e-06     1029
     1   109.470   0.000131070      343
---------------- Step     7900 ----- CPU =     20.9483 (sec) ----------------
TotEng   =     -3170.6983 Temp     =       299.9539 KinEng   =       612.4623 
PotEng   =     -3783.1606 E_bond   =         0.0000 E_angle  =         0.0000 
E_vdwl   =       719.4014 E_coul   =     14105.7467 E_long   =    -18608.3087 
Press    =       -86.1206 
SHAKE stats (type/ave/delta/count) on step 8000
     1   1.00000   1.00981e-06     1029
     1   109.470   9.20720e-05      343
---------------- Step     8000 ----- CPU =     21.2269 (sec) ----------------
TotEng   =     -3186.8397 Temp     =       297.7740 KinEng   =       608.0114 
PotEng   =     -3794.8510 E_bond   =         0.0000 E_angle  =         0.0000 
E_vdwl   =       710.6366 E_coul   =     14103.5176 E_long   =    -18609.0052 
Press    =      -441.7810 
SHAKE stats (type/ave/delta/count) on step 8100
     1   1.00000   1.07672e-06     1029
     1   109.470   8.63741e-05      343
---------------- Step     8100 ----- CPU =     21.4802 (sec) ----------------
TotEng   =     -3183.5983 Temp     =       295.2124 KinEng   =       602.7808 
PotEng   =     -3786.3791 E_bond   =         0.0000 E_angle  =         0.0000 
E_vdwl   =       736.3236 E_coul   =     14084.5742 E_long   =    -18607.2769 
Press    =       132.3276 
SHAKE stats (type/ave/delta/count) on step 8200
     1   1.00000   1.66129e-06     1029
     1   109.470   0.000150741      343
---------------- Step     8200 ----- CPU =     21.7447 (sec) ----------------
TotEng   =     -3151.1226 Temp     =       302.1011 KinEng   =       616.8465 
PotEng   =     -3767.9691 E_bond   =         0.0000 E_angle  =         0.0000 
E_vdwl   =       697.5089 E_coul   =     14142.6606 E_long   =    -18608.1387 
Press    =      -400.3687 
SHAKE stats (type/ave/delta/count) on step 8300
     1   1.00000   1.31226e-06     1029
     1   109.470   9.87759e-05      343
---------------- Step     8300 ----- CPU =     22.0013 (sec) ----------------
TotEng   =     -3106.6572 Temp     =       310.2288 KinEng   =       633.4423 
PotEng   =     -3740.0995 E_bond   =         0.0000 E_angle  =         0.0000 
E_vdwl   =       694.8210 E_coul   =     14173.0895 E_long   =    -18608.0100 
Press    =      -209.0525 
SHAKE stats (type/ave/delta/count) on step 8400
     1   1.00000   1.34412e-06     1029
     1   109.470   9.56231e-05      343
---------------- Step     8400 ----- CPU =     22.2759 (sec) ----------------
TotEng   =     -3105.0500 Temp     =       302.6079 KinEng   =       617.8814 
PotEng   =     -3722.9313 E_bond   =         0.0000 E_angle  =         0.0000 
E_vdwl   =       709.1722 E_coul   =     14176.6832 E_long   =    -18608.7867 
Press    =       -11.4984 
SHAKE stats (type/ave/delta/count) on step 8500
     1   1.00000   1.61248e-06     1029
     1   109.470   0.000159359      343
---------------- Step     8500 ----- CPU =     22.5311 (sec) ----------------
TotEng   =     -3131.8017 Temp     =       305.5890 KinEng   =       623.9683 
PotEng   =     -3755.7700 E_bond   =         0.0000 E_angle  =         0.0000 
E_vdwl   =       724.7072 E_coul   =     14128.3840 E_long   =    -18608.8612 
Press    =        61.1150 
SHAKE stats (type/ave/delta/count) on step 8600
     1   1.00000   1.53531e-06     1029
     1   109.470   0.000123443      343
---------------- Step     8600 ----- CPU =     22.7818 (sec) ----------------
TotEng   =     -3167.1025 Temp     =       299.1175 KinEng   =       610.7545 
PotEng   =     -3777.8570 E_bond   =         0.0000 E_angle  =         0.0000 
E_vdwl   =       692.6972 E_coul   =     14139.2201 E_long   =    -18609.7742 
Press    =      -753.9094 
SHAKE stats (type/ave/delta/count) on step 8700
     1   1.00000   1.09125e-06     1029
     1   109.470   9.06401e-05      343
---------------- Step     8700 ----- CPU =     23.0302 (sec) ----------------
TotEng   =     -3166.8518 Temp     =       292.2037 KinEng   =       596.6375 
PotEng   =     -3763.4893 E_bond   =         0.0000 E_angle  =         0.0000 
E_vdwl   =       754.2596 E_coul   =     14090.2745 E_long   =    -18608.0235 
Press    =       528.2625 
SHAKE stats (type/ave/delta/count) on step 8800
     1   1.00000   1.28281e-06     1029
     1   109.470   0.000111295      343
---------------- Step     8800 ----- CPU =     23.2714 (sec) ----------------
TotEng   =     -3160.0002 Temp     =       297.5435 KinEng   =       607.5406 
PotEng   =     -3767.5408 E_bond   =         0.0000 E_angle  =         0.0000 
E_vdwl   =       759.6257 E_coul   =     14079.9109 E_long   =    -18607.0774 
Press    =       797.4413 
SHAKE stats (type/ave/delta/count) on step 8900
     1   1.00000   1.24775e-06     1029
     1   109.470   0.000128793      343
---------------- Step     8900 ----- CPU =     23.5330 (sec) ----------------
TotEng   =     -3184.1310 Temp     =       296.6130 KinEng   =       605.6407 
PotEng   =     -3789.7717 E_bond   =         0.0000 E_angle  =         0.0000 
E_vdwl   =       679.8626 E_coul   =     14136.5952 E_long   =    -18606.2296 
Press    =     -1121.5374 
SHAKE stats (type/ave/delta/count) on step 9000
     1   1.00000   1.04503e-06     1029
     1   109.470   8.32093e-05      343
---------------- Step     9000 ----- CPU =     23.8259 (sec) ----------------
TotEng   =     -3195.9076 Temp     =       285.0222 KinEng   =       581.9741 
PotEng   =     -3777.8817 E_bond   =         0.0000 E_angle  =         0.0000 
E_vdwl   =       757.4576 E_coul   =     14072.4163 E_long   =    -18607.7556 
Press    =       493.2711 
SHAKE stats (type/ave/delta/count) on step 9100
     1   1.00000   1.90082e-06     1029
     1   109.470   0.000142507      343
---------------- Step     9100 ----- CPU =     24.0752 (sec) ----------------
TotEng   =     -3150.2905 Temp     =       319.7544 KinEng   =       652.8922 
PotEng   =     -3803.1826 E_bond   =         0.0000 E_angle  =         0.0000 
E_vdwl   =       694.3258 E_coul   =     14110.7799 E_long   =    -18608.2883 
Press    =      -890.9152 
SHAKE stats (type/ave/delta/count) on step 9200
     1   1.00000   1.19548e-06     1029
     1   109.470   8.91091e-05      343
---------------- Step     9200 ----- CPU =     24.3161 (sec) ----------------
TotEng   =     -3134.0054 Temp     =       316.0800 KinEng   =       645.3894 
PotEng   =     -3779.3949 E_bond   =         0.0000 E_angle  =         0.0000 
E_vdwl   =       734.1393 E_coul   =     14091.6489 E_long   =    -18605.1830 
Press    =       214.1322 
SHAKE stats (type/ave/delta/count) on step 9300
     1   1.00000   1.89591e-06     1029
     1   109.470   0.000156740      343
---------------- Step     9300 ----- CPU =     24.5721 (sec) ----------------
TotEng   =     -3162.8017 Temp     =       308.9433 KinEng   =       630.8174 
PotEng   =     -3793.6191 E_bond   =         0.0000 E_angle  =         0.0000 
E_vdwl   =       703.8552 E_coul   =     14111.0818 E_long   =    -18608.5561 
Press    =      -716.6915 
SHAKE stats (type/ave/delta/count) on step 9400
     1   1.00000   1.57746e-06     1029
     1   109.470   0.000119953      343
---------------- Step     9400 ----- CPU =     24.8511 (sec) ----------------
TotEng   =     -3199.6984 Temp     =       299.0800 KinEng   =       610.6779 
PotEng   =     -3810.3763 E_bond   =         0.0000 E_angle  =         0.0000 
E_vdwl   =       702.7856 E_coul   =     14095.0096 E_long   =    -18608.1715 
Press    =      -872.1767 
SHAKE stats (type/ave/delta/count) on step 9500
     1   1.00000   1.02184e-06     1029
     1   109.470   8.85584e-05      343
---------------- Step     9500 ----- CPU =     25.1087 (sec) ----------------
TotEng   =     -3211.0595 Temp     =       286.6833 KinEng   =       585.3657 
PotEng   =     -3796.4252 E_bond   =         0.0000 E_angle  =         0.0000 
E_vdwl   =       685.8268 E_coul   =     14127.5230 E_long   =    -18609.7751 
Press    =      -992.3134 
SHAKE stats (type/ave/delta/count) on step 9600
     1   1.00000   9.92287e-07     1029
     1   109.470   0.000107685      343
---------------- Step     9600 ----- CPU =     25.4039 (sec) ----------------
TotEng   =     -3204.9088 Temp     =       294.3892 KinEng   =       601.1001 
PotEng   =     -3806.0089 E_bond   =         0.0000 E_angle  =         0.0000 
E_vdwl   =       710.4655 E_coul   =     14090.2842 E_long   =    -18606.7586 
Press    =      -622.8382 
SHAKE stats (type/ave/delta/count) on step 9700
     1   1.00000   1.49876e-06     1029
     1   109.470   0.000109612      343
---------------- Step     9700 ----- CPU =     25.6617 (sec) ----------------
TotEng   =     -3179.1149 Temp     =       315.9592 KinEng   =       645.1428 
PotEng   =     -3824.2578 E_bond   =         0.0000 E_angle  =         0.0000 
E_vdwl   =       772.3711 E_coul   =     14012.6803 E_long   =    -18609.3092 
Press    =       441.6959 
SHAKE stats (type/ave/delta/count) on step 9800
     1   1.00000   1.08936e-06     1029
     1   109.470   9.42805e-05      343
---------------- Step     9800 ----- CPU =     26.0120 (sec) ----------------
TotEng   =     -3176.1404 Temp     =       293.3288 KinEng   =       598.9349 
PotEng   =     -3775.0752 E_bond   =         0.0000 E_angle  =         0.0000 
E_vdwl   =       754.2448 E_coul   =     14078.7432 E_long   =    -18608.0632 
Press    =       542.1056 
SHAKE stats (type/ave/delta/count) on step 9900
     1   1.00000   9.85903e-07     1029
     1   109.470   9.35428e-05      343
---------------- Step     9900 ----- CPU =     26.3451 (sec) ----------------
TotEng   =     -3179.8648 Temp     =       297.7961 KinEng   =       608.0565 
PotEng   =     -3787.9213 E_bond   =         0.0000 E_angle  =         0.0000 
E_vdwl   =       706.7414 E_coul   =     14114.2148 E_long   =    -18608.8775 
Press    =      -561.5285 
SHAKE stats (type/ave/delta/count) on step 10000
     1   1.00000   1.09888e-06     1029
     1   109.470   8.65316e-05      343
---------------- Step    10000 ----- CPU =     26.6833 (sec) ----------------
TotEng   =     -3180.5567 Temp     =       296.3554 KinEng   =       605.1147 
PotEng   =     -3785.6713 E_bond   =         0.0000 E_angle  =         0.0000 
E_vdwl   =       768.3092 E_coul   =     14056.0802 E_long   =    -18610.0607 
Press    =       707.8962 
Loop time of 26.6834 on 4 procs for 10000 steps with 1029 atoms

Performance: 32.380 ns/day, 0.741 hours/ns, 374.765 timesteps/s
96.9% CPU use with 4 MPI tasks x 1 OpenMP threads

MPI task timing breakdown:
Section |  min time  |  avg time  |  max time  |%varavg| %total
---------------------------------------------------------------
Pair    | 15.179     | 16.691     | 17.983     |  25.8 | 62.55
Bond    | 0.0034906  | 0.004177   | 0.0048216  |   0.8 |  0.02
Kspace  | 4.4368     | 5.7421     | 7.2553     |  44.2 | 21.52
Neigh   | 1.2808     | 1.281      | 1.2812     |   0.0 |  4.80
Comm    | 1.2139     | 1.2358     | 1.2483     |   1.2 |  4.63
Output  | 0.009859   | 0.010736   | 0.013315   |   1.4 |  0.04
Modify  | 1.5215     | 1.5435     | 1.5573     |   1.1 |  5.78
Other   |            | 0.1755     |            |       |  0.66

Nlocal:        257.250 ave         263 max         252 min
Histogram: 1 1 0 0 0 0 0 1 0 1
Nghost:        5290.50 ave        5303 max        5270 min
Histogram: 1 0 0 0 0 0 1 0 1 1
Neighs:        92683.2 ave       99891 max       85120 min
Histogram: 1 0 0 1 0 0 1 0 0 1

Total # of neighbors = 370733
Ave neighs/atom = 360.28474
Ave special neighs/atom = 2.0000000
Neighbor list builds = 418
Dangerous builds = 0
System init for write_data ...
PPPM initialization ...
  using 12-bit tables for long-range coulomb (src/kspace.cpp:340)
  G vector (1/distance) = 0.26919
  grid = 12 12 12
  stencil order = 5
  estimated absolute RMS force accuracy = 0.024006429
  estimated relative force accuracy = 7.2294647e-05
  using double precision FFTW3
  3d grid and FFT values/proc = 3211 432
PPPM initialization ...
  using 12-bit tables for long-range coulomb (src/kspace.cpp:340)
  G vector (1/distance) = 0.26919
  grid = 12 12 12
  stencil order = 5
  estimated absolute RMS force accuracy = 0.024006429
  estimated relative force accuracy = 7.2294647e-05
  using double precision FFTW3
  3d grid and FFT values/proc = 3211 432
Setting up Verlet run ...
  Unit style    : real
  Current step  : 10000
  Time step     : 1
SHAKE stats (type/ave/delta/count) on step 10000
     1   0.999999  1.09888e-06     1029
     1   109.470   8.65316e-05      343
Per MPI rank memory allocation (min/avg/max) = 9.653 | 9.845 | 10.04 Mbytes
---------------- Step    10000 ----- CPU =      0.0000 (sec) ----------------
TotEng   =     -3180.5463 Temp     =       296.3554 KinEng   =       605.1147 
PotEng   =     -3785.6609 E_bond   =         0.0000 E_angle  =         0.0000 
E_vdwl   =       768.3152 E_coul   =     14076.8747 E_long   =    -18630.8508 
Press    =       706.1998 
SHAKE stats (type/ave/delta/count) on step 10100
     1   1.00000   1.29617e-06     1029
     1   109.470   9.74803e-05      343
---------------- Step    10100 ----- CPU =      0.2596 (sec) ----------------
TotEng   =     -3182.5023 Temp     =       301.3112 KinEng   =       615.2337 
PotEng   =     -3797.7360 E_bond   =         0.0000 E_angle  =         0.0000 
E_vdwl   =       716.6081 E_coul   =     14115.3203 E_long   =    -18629.6644 
Press    =      -481.2210 
SHAKE stats (type/ave/delta/count) on step 10200
     1   1.00000   1.91906e-06     1029
     1   109.470   0.000166870      343
---------------- Step    10200 ----- CPU =      0.5051 (sec) ----------------
TotEng   =     -3215.9232 Temp     =       285.9041 KinEng   =       583.7746 
PotEng   =     -3799.6978 E_bond   =         0.0000 E_angle  =         0.0000 
E_vdwl   =       679.4442 E_coul   =     14151.5320 E_long   =    -18630.6741 
Press    =     -1271.8998 
SHAKE stats (type/ave/delta/count) on step 10300
     1   1.00000   1.08584e-06     1029
     1   109.470   8.50045e-05      343
---------------- Step    10300 ----- CPU =      0.7421 (sec) ----------------
TotEng   =     -3239.4818 Temp     =       289.2133 KinEng   =       590.5316 
PotEng   =     -3830.0134 E_bond   =         0.0000 E_angle  =         0.0000 
E_vdwl   =       683.6957 E_coul   =     14116.8607 E_long   =    -18630.5698 
Press    =     -1434.6661 
SHAKE stats (type/ave/delta/count) on step 10400
     1   1.00000   1.71396e-06     1029
     1   109.470   0.000179918      343
---------------- Step    10400 ----- CPU =      1.0316 (sec) ----------------
TotEng   =     -3205.4795 Temp     =       304.3730 KinEng   =       621.4855 
PotEng   =     -3826.9650 E_bond   =         0.0000 E_angle  =         0.0000 
E_vdwl   =       733.4924 E_coul   =     14068.5078 E_long   =    -18628.9652 
Press    =      -214.3368 
SHAKE stats (type/ave/delta/count) on step 10500
     1   1.00000   1.15228e-06     1029
     1   109.470   8.32100e-05      343
---------------- Step    10500 ----- CPU =      1.2858 (sec) ----------------
TotEng   =     -3173.2635 Temp     =       308.9737 KinEng   =       630.8795 
PotEng   =     -3804.1429 E_bond   =         0.0000 E_angle  =         0.0000 
E_vdwl   =       717.2514 E_coul   =     14107.8455 E_long   =    -18629.2398 
Press    =      -291.7906 
SHAKE stats (type/ave/delta/count) on step 10600
     1   1.00000   1.33770e-06     1029
     1   109.470   0.000100983      343
---------------- Step    10600 ----- CPU =      1.5553 (sec) ----------------
TotEng   =     -3182.5744 Temp     =       310.4371 KinEng   =       633.8676 
PotEng   =     -3816.4420 E_bond   =         0.0000 E_angle  =         0.0000 
E_vdwl   =       748.2618 E_coul   =     14064.4563 E_long   =    -18629.1602 
Press    =       281.7993 
SHAKE stats (type/ave/delta/count) on step 10700
     1   1.00000   1.48579e-06     1029
     1   109.470   8.82886e-05      343
---------------- Step    10700 ----- CPU =      1.8900 (sec) ----------------
TotEng   =     -3191.3951 Temp     =       296.1264 KinEng   =       604.6471 
PotEng   =     -3796.0422 E_bond   =         0.0000 E_angle  =         0.0000 
E_vdwl   =       671.1160 E_coul   =     14162.9405 E_long   =    -18630.0988 
Press    =     -1320.7230 
SHAKE stats (type/ave/delta/count) on step 10800
     1   1.00000   1.30341e-06     1029
     1   109.470   9.37493e-05      343
---------------- Step    10800 ----- CPU =      2.1800 (sec) ----------------
TotEng   =     -3186.4884 Temp     =       305.8468 KinEng   =       624.4949 
PotEng   =     -3810.9833 E_bond   =         0.0000 E_angle  =         0.0000 
E_vdwl   =       708.2554 E_coul   =     14110.3577 E_long   =    -18629.5964 
Press    =      -613.1693 
SHAKE stats (type/ave/delta/count) on step 10900
     1   1.00000   2.13475e-06     1029
     1   109.470   0.000168253      343
---------------- Step    10900 ----- CPU =      2.4195 (sec) ----------------
TotEng   =     -3161.2314 Temp     =       309.6614 KinEng   =       632.2836 
PotEng   =     -3793.5150 E_bond   =         0.0000 E_angle  =         0.0000 
E_vdwl   =       777.6859 E_coul   =     14057.8789 E_long   =    -18629.0798 
Press    =       979.4707 
SHAKE stats (type/ave/delta/count) on step 11000
     1   1.00000   1.34048e-06     1029
     1   109.470   9.09093e-05      343
---------------- Step    11000 ----- CPU =      2.7061 (sec) ----------------
TotEng   =     -3123.4708 Temp     =       321.0894 KinEng   =       655.6180 
PotEng   =     -3779.0888 E_bond   =         0.0000 E_angle  =         0.0000 
E_vdwl   =       755.8917 E_coul   =     14094.9589 E_long   =    -18629.9393 
Press    =       715.9133 
SHAKE stats (type/ave/delta/count) on step 11100
     1   1.00000   2.23569e-06     1029
     1   109.470   0.000153278      343
---------------- Step    11100 ----- CPU =      2.9745 (sec) ----------------
TotEng   =     -3175.9468 Temp     =       293.9528 KinEng   =       600.2091 
PotEng   =     -3776.1558 E_bond   =         0.0000 E_angle  =         0.0000 
E_vdwl   =       722.1248 E_coul   =     14131.0176 E_long   =    -18629.2982 
Press    =       -43.2728 
SHAKE stats (type/ave/delta/count) on step 11200
     1   1.00000   1.11716e-06     1029
     1   109.470   0.000100065      343
---------------- Step    11200 ----- CPU =      3.2493 (sec) ----------------
TotEng   =     -3196.2252 Temp     =       297.2080 KinEng   =       606.8556 
PotEng   =     -3803.0808 E_bond   =         0.0000 E_angle  =         0.0000 
E_vdwl   =       748.5208 E_coul   =     14079.0127 E_long   =    -18630.6143 
Press    =       153.7329 
SHAKE stats (type/ave/delta/count) on step 11300
     1   1.00000   1.27345e-06     1029
     1   109.470   0.000100857      343
---------------- Step    11300 ----- CPU =      3.5379 (sec) ----------------
TotEng   =     -3191.6143 Temp     =       308.9641 KinEng   =       630.8598 
PotEng   =     -3822.4741 E_bond   =         0.0000 E_angle  =         0.0000 
E_vdwl   =       699.3134 E_coul   =     14108.2702 E_long   =    -18630.0577 
Press    =      -984.4544 
SHAKE stats (type/ave/delta/count) on step 11400
     1   1.00000   1.05677e-06     1029
     1   109.470   0.000108498      343
---------------- Step    11400 ----- CPU =      3.8222 (sec) ----------------
TotEng   =     -3173.1401 Temp     =       293.7176 KinEng   =       599.7288 
PotEng   =     -3772.8689 E_bond   =         0.0000 E_angle  =         0.0000 
E_vdwl   =       758.8348 E_coul   =     14098.7676 E_long   =    -18630.4713 
Press    =       717.1727 
SHAKE stats (type/ave/delta/count) on step 11500
     1   1.00000   1.52940e-06     1029
     1   109.470   0.000139892      343
---------------- Step    11500 ----- CPU =      4.0703 (sec) ----------------
TotEng   =     -3166.4513 Temp     =       297.3421 KinEng   =       607.1294 
PotEng   =     -3773.5807 E_bond   =         0.0000 E_angle  =         0.0000 
E_vdwl   =       735.9502 E_coul   =     14120.7447 E_long   =    -18630.2756 
Press    =       209.2466 
SHAKE stats (type/ave/delta/count) on step 11600
     1   1.00000   2.12126e-06     1029
     1   109.470   0.000171694      343
---------------- Step    11600 ----- CPU =      4.3459 (sec) ----------------
TotEng   =     -3213.7249 Temp     =       300.2210 KinEng   =       613.0077 
PotEng   =     -3826.7326 E_bond   =         0.0000 E_angle  =         0.0000 
E_vdwl   =       775.7190 E_coul   =     14028.4771 E_long   =    -18630.9287 
Press    =       521.5777 
SHAKE stats (type/ave/delta/count) on step 11700
     1   1.00000   1.22762e-06     1029
     1   109.470   0.000103902      343
---------------- Step    11700 ----- CPU =      4.5993 (sec) ----------------
TotEng   =     -3238.8120 Temp     =       300.3226 KinEng   =       613.2151 
PotEng   =     -3852.0271 E_bond   =         0.0000 E_angle  =         0.0000 
E_vdwl   =       784.0863 E_coul   =     13994.2352 E_long   =    -18630.3487 
Press    =       545.6663 
SHAKE stats (type/ave/delta/count) on step 11800
     1   1.00000   9.13993e-07     1029
     1   109.470   8.34965e-05      343
---------------- Step    11800 ----- CPU =      4.8871 (sec) ----------------
TotEng   =     -3247.1475 Temp     =       295.3826 KinEng   =       603.1284 
PotEng   =     -3850.2759 E_bond   =         0.0000 E_angle  =         0.0000 
E_vdwl   =       800.8329 E_coul   =     13977.9810 E_long   =    -18629.0898 
Press    =       943.4210 
SHAKE stats (type/ave/delta/count) on step 11900
     1   1.00000   2.05026e-06     1029
     1   109.470   0.000143464      343
---------------- Step    11900 ----- CPU =      5.1868 (sec) ----------------
TotEng   =     -3226.1773 Temp     =       295.2117 KinEng   =       602.7794 
PotEng   =     -3828.9567 E_bond   =         0.0000 E_angle  =         0.0000 
E_vdwl   =       678.8665 E_coul   =     14121.0277 E_long   =    -18628.8509 
Press    =     -1505.6889 
SHAKE stats (type/ave/delta/count) on step 12000
     1   1.00000   1.35266e-06     1029
     1   109.470   0.000109286      343
---------------- Step    12000 ----- CPU =      5.4432 (sec) ----------------
TotEng   =     -3180.0546 Temp     =       300.4980 KinEng   =       613.5734 
PotEng   =     -3793.6280 E_bond   =         0.0000 E_angle  =         0.0000 
E_vdwl   =       760.3001 E_coul   =     14078.0928 E_long   =    -18632.0209 
Press    =       599.9728 
SHAKE stats (type/ave/delta/count) on step 12100
     1   1.00000   9.97772e-07     1029
     1   109.470   8.94296e-05      343
---------------- Step    12100 ----- CPU =      5.7153 (sec) ----------------
TotEng   =     -3171.4331 Temp     =       313.1646 KinEng   =       639.4367 
PotEng   =     -3810.8699 E_bond   =         0.0000 E_angle  =         0.0000 
E_vdwl   =       720.5448 E_coul   =     14099.2877 E_long   =    -18630.7024 
Press    =      -445.9353 
SHAKE stats (type/ave/delta/count) on step 12200
     1   1.00000   1.25345e-06     1029
     1   109.470   0.000109550      343
---------------- Step    12200 ----- CPU =      5.9469 (sec) ----------------
TotEng   =     -3187.5957 Temp     =       296.7723 KinEng   =       605.9659 
PotEng   =     -3793.5617 E_bond   =         0.0000 E_angle  =         0.0000 
E_vdwl   =       728.7402 E_coul   =     14108.3114 E_long   =    -18630.6132 
Press    =      -185.2836 
SHAKE stats (type/ave/delta/count) on step 12300
     1   1.00000   1.00654e-06     1029
     1   109.470   9.04268e-05      343
---------------- Step    12300 ----- CPU =      6.1788 (sec) ----------------
TotEng   =     -3200.2732 Temp     =       283.3865 KinEng   =       578.6341 
PotEng   =     -3778.9072 E_bond   =         0.0000 E_angle  =         0.0000 
E_vdwl   =       777.7185 E_coul   =     14070.5685 E_long   =    -18627.1943 
Press    =       791.8414 
SHAKE stats (type/ave/delta/count) on step 12400
     1   1.00000   1.22616e-06     1029
     1   109.470   8.32830e-05      343
---------------- Step    12400 ----- CPU =      6.4525 (sec) ----------------
TotEng   =     -3195.0274 Temp     =       310.6816 KinEng   =       634.3667 
PotEng   =     -3829.3941 E_bond   =         0.0000 E_angle  =         0.0000 
E_vdwl   =       813.9466 E_coul   =     13984.1474 E_long   =    -18627.4881 
Press    =      1484.7640 
SHAKE stats (type/ave/delta/count) on step 12500
     1   1.00000   1.90905e-06     1029
     1   109.470   0.000218372      343
---------------- Step    12500 ----- CPU =      6.7020 (sec) ----------------
TotEng   =     -3230.1783 Temp     =       298.6798 KinEng   =       609.8608 
PotEng   =     -3840.0391 E_bond   =         0.0000 E_angle  =         0.0000 
E_vdwl   =       744.4071 E_coul   =     14043.7411 E_long   =    -18628.1873 
Press    =      -133.8134 
SHAKE stats (type/ave/delta/count) on step 12600
     1   1.00000   1.32813e-06     1029
     1   109.470   9.06545e-05      343
---------------- Step    12600 ----- CPU =      6.9740 (sec) ----------------
TotEng   =     -3256.9072 Temp     =       304.8741 KinEng   =       622.5087 
PotEng   =     -3879.4159 E_bond   =         0.0000 E_angle  =         0.0000 
E_vdwl   =       773.1437 E_coul   =     13979.3300 E_long   =    -18631.8896 
Press    =       196.4442 
SHAKE stats (type/ave/delta/count) on step 12700
     1   1.00000   1.15966e-06     1029
     1   109.470   8.77732e-05      343
---------------- Step    12700 ----- CPU =      7.2307 (sec) ----------------
TotEng   =     -3254.2100 Temp     =       280.2136 KinEng   =       572.1555 
PotEng   =     -3826.3655 E_bond   =         0.0000 E_angle  =         0.0000 
E_vdwl   =       803.1520 E_coul   =     14001.8144 E_long   =    -18631.3319 
Press    =       986.2578 
SHAKE stats (type/ave/delta/count) on step 12800
     1   1.00000   1.95230e-06     1029
     1   109.470   0.000177962      343
---------------- Step    12800 ----- CPU =      7.4815 (sec) ----------------
TotEng   =     -3210.8717 Temp     =       298.3691 KinEng   =       609.2265 
PotEng   =     -3820.0982 E_bond   =         0.0000 E_angle  =         0.0000 
E_vdwl   =       781.4915 E_coul   =     14028.2819 E_long   =    -18629.8715 
Press    =       616.8948 
SHAKE stats (type/ave/delta/count) on step 12900
     1   1.00000   8.79679e-07     1029
     1   109.470   8.66212e-05      343
---------------- Step    12900 ----- CPU =      7.7280 (sec) ----------------
TotEng   =     -3181.1301 Temp     =       302.1884 KinEng   =       617.0248 
PotEng   =     -3798.1550 E_bond   =         0.0000 E_angle  =         0.0000 
E_vdwl   =       720.2635 E_coul   =     14111.6741 E_long   =    -18630.0926 
Press    =      -188.6134 
SHAKE stats (type/ave/delta/count) on step 13000
     1   1.00000   1.26096e-06     1029
     1   109.470   8.59223e-05      343
---------------- Step    13000 ----- CPU =      7.9934 (sec) ----------------
TotEng   =     -3175.0089 Temp     =       302.6020 KinEng   =       617.8694 
PotEng   =     -3792.8783 E_bond   =         0.0000 E_angle  =         0.0000 
E_vdwl   =       802.4848 E_coul   =     14035.8672 E_long   =    -18631.2303 
Press    =      1319.0470 
SHAKE stats (type/ave/delta/count) on step 13100
     1   1.00000   1.72742e-06     1029
     1   109.470   0.000141107      343
---------------- Step    13100 ----- CPU =      8.2333 (sec) ----------------
TotEng   =     -3199.4349 Temp     =       297.3092 KinEng   =       607.0623 
PotEng   =     -3806.4971 E_bond   =         0.0000 E_angle  =         0.0000 
E_vdwl   =       731.5871 E_coul   =     14090.9603 E_long   =    -18629.0445 
Press    =      -274.8041 
SHAKE stats (type/ave/delta/count) on step 13200
     1   1.00000   1.05202e-06     1029
     1   109.470   8.14722e-05      343
---------------- Step    13200 ----- CPU =      8.4726 (sec) ----------------
TotEng   =     -3219.2718 Temp     =       294.3557 KinEng   =       601.0317 
PotEng   =     -3820.3035 E_bond   =         0.0000 E_angle  =         0.0000 
E_vdwl   =       679.2750 E_coul   =     14130.5738 E_long   =    -18630.1523 
Press    =     -1405.7790 
SHAKE stats (type/ave/delta/count) on step 13300
     1   1.00000   1.55962e-06     1029
     1   109.470   0.000143221      343
---------------- Step    13300 ----- CPU =      8.7267 (sec) ----------------
TotEng   =     -3204.4207 Temp     =       307.2421 KinEng   =       627.3438 
PotEng   =     -3831.7645 E_bond   =         0.0000 E_angle  =         0.0000 
E_vdwl   =       749.9860 E_coul   =     14047.9039 E_long   =    -18629.6545 
Press    =       -35.8263 
SHAKE stats (type/ave/delta/count) on step 13400
     1   1.00000   1.16329e-06     1029
     1   109.470   0.000122148      343
---------------- Step    13400 ----- CPU =      9.0002 (sec) ----------------
TotEng   =     -3168.0682 Temp     =       313.5899 KinEng   =       640.3050 
PotEng   =     -3808.3732 E_bond   =         0.0000 E_angle  =         0.0000 
E_vdwl   =       698.7248 E_coul   =     14121.6325 E_long   =    -18628.7305 
Press    =      -980.2200 
SHAKE stats (type/ave/delta/count) on step 13500
     1   1.00000   1.28962e-06     1029
     1   109.470   0.000102266      343
---------------- Step    13500 ----- CPU =      9.2569 (sec) ----------------
TotEng   =     -3157.0766 Temp     =       324.2464 KinEng   =       662.0641 
PotEng   =     -3819.1408 E_bond   =         0.0000 E_angle  =         0.0000 
E_vdwl   =       730.6503 E_coul   =     14081.4039 E_long   =    -18631.1949 
Press    =      -356.5129 
SHAKE stats (type/ave/delta/count) on step 13600
     1   1.00000   1.72269e-06     1029
     1   109.470   0.000157019      343
---------------- Step    13600 ----- CPU =      9.5100 (sec) ----------------
TotEng   =     -3189.6890 Temp     =       302.2844 KinEng   =       617.2210 
PotEng   =     -3806.9099 E_bond   =         0.0000 E_angle  =         0.0000 
E_vdwl   =       686.3817 E_coul   =     14137.4526 E_long   =    -18630.7442 
Press    =     -1227.4578 
SHAKE stats (type/ave/delta/count) on step 13700
     1   1.00000   1.32374e-06     1029
     1   109.470   0.000128127      343
---------------- Step    13700 ----- CPU =      9.7509 (sec) ----------------
TotEng   =     -3227.2560 Temp     =       282.0651 KinEng   =       575.9360 
PotEng   =     -3803.1921 E_bond   =         0.0000 E_angle  =         0.0000 
E_vdwl   =       719.8438 E_coul   =     14107.7863 E_long   =    -18630.8221 
Press    =      -444.2406 
SHAKE stats (type/ave/delta/count) on step 13800
     1   1.00000   1.09091e-06     1029
     1   109.470   9.09205e-05      343
---------------- Step    13800 ----- CPU =     10.0106 (sec) ----------------
TotEng   =     -3224.5818 Temp     =       290.2424 KinEng   =       592.6329 
PotEng   =     -3817.2147 E_bond   =         0.0000 E_angle  =         0.0000 
E_vdwl   =       729.9984 E_coul   =     14083.3277 E_long   =    -18630.5408 
Press    =      -203.2029 
SHAKE stats (type/ave/delta/count) on step 13900
     1   1.00000   1.41276e-06     1029
     1   109.470   0.000123843      343
---------------- Step    13900 ----- CPU =     10.2777 (sec) ----------------
TotEng   =     -3201.9642 Temp     =       290.6598 KinEng   =       593.4852 
PotEng   =     -3795.4494 E_bond   =         0.0000 E_angle  =         0.0000 
E_vdwl   =       750.6775 E_coul   =     14083.4947 E_long   =    -18629.6217 
Press    =       220.9540 
SHAKE stats (type/ave/delta/count) on step 14000
     1   1.00000   1.23825e-06     1029
     1   109.470   8.84959e-05      343
---------------- Step    14000 ----- CPU =     10.5313 (sec) ----------------
TotEng   =     -3175.6609 Temp     =       306.5413 KinEng   =       625.9128 
PotEng   =     -3801.5737 E_bond   =         0.0000 E_angle  =         0.0000 
E_vdwl   =       741.5212 E_coul   =     14087.3845 E_long   =    -18630.4795 
Press    =       215.3913 
SHAKE stats (type/ave/delta/count) on step 14100
     1   1.00000   9.57032e-07     1029
     1   109.470   8.94592e-05      343
---------------- Step    14100 ----- CPU =     10.7745 (sec) ----------------
TotEng   =     -3177.6147 Temp     =       284.8759 KinEng   =       581.6753 
PotEng   =     -3759.2900 E_bond   =         0.0000 E_angle  =         0.0000 
E_vdwl   =       737.5935 E_coul   =     14128.8268 E_long   =    -18625.7103 
Press    =       245.5701 
SHAKE stats (type/ave/delta/count) on step 14200
     1   1.00000   1.08284e-06     1029
     1   109.470   8.44548e-05      343
---------------- Step    14200 ----- CPU =     11.0379 (sec) ----------------
TotEng   =     -3174.0054 Temp     =       300.6009 KinEng   =       613.7834 
PotEng   =     -3787.7888 E_bond   =         0.0000 E_angle  =         0.0000 
E_vdwl   =       741.3077 E_coul   =     14100.3059 E_long   =    -18629.4024 
Press    =        71.8216 
SHAKE stats (type/ave/delta/count) on step 14300
     1   1.00000   1.92711e-06     1029
     1   109.470   0.000141388      343
---------------- Step    14300 ----- CPU =     11.2991 (sec) ----------------
TotEng   =     -3191.2340 Temp     =       303.2795 KinEng   =       619.2527 
PotEng   =     -3810.4867 E_bond   =         0.0000 E_angle  =         0.0000 
E_vdwl   =       726.2584 E_coul   =     14092.4649 E_long   =    -18629.2101 
Press    =      -367.6540 
SHAKE stats (type/ave/delta/count) on step 14400
     1   1.00000   1.47180e-06     1029
     1   109.470   0.000122223      343
---------------- Step    14400 ----- CPU =     11.5599 (sec) ----------------
TotEng   =     -3243.4702 Temp     =       285.0689 KinEng   =       582.0693 
PotEng   =     -3825.5395 E_bond   =         0.0000 E_angle  =         0.0000 
E_vdwl   =       801.0912 E_coul   =     14004.4045 E_long   =    -18631.0352 
Press    =       858.0775 
SHAKE stats (type/ave/delta/count) on step 14500
     1   1.00000   1.07553e-06     1029
     1   109.470   0.000104447      343
---------------- Step    14500 ----- CPU =     11.8028 (sec) ----------------
TotEng   =     -3242.2025 Temp     =       297.3655 KinEng   =       607.1772 
PotEng   =     -3849.3798 E_bond   =         0.0000 E_angle  =         0.0000 
E_vdwl   =       715.9656 E_coul   =     14064.1852 E_long   =    -18629.5306 
Press    =      -969.3817 
SHAKE stats (type/ave/delta/count) on step 14600
     1   1.00000   1.52065e-06     1029
     1   109.470   0.000133593      343
---------------- Step    14600 ----- CPU =     12.0854 (sec) ----------------
TotEng   =     -3208.7493 Temp     =       297.7423 KinEng   =       607.9466 
PotEng   =     -3816.6959 E_bond   =         0.0000 E_angle  =         0.0000 
E_vdwl   =       759.6461 E_coul   =     14052.8086 E_long   =    -18629.1506 
Press    =       184.3976 
SHAKE stats (type/ave/delta/count) on step 14700
     1   1.00000   1.16840e-06     1029
     1   109.470   0.000101463      343
---------------- Step    14700 ----- CPU =     12.3389 (sec) ----------------
TotEng   =     -3184.1211 Temp     =       300.2823 KinEng   =       613.1328 
PotEng   =     -3797.2540 E_bond   =         0.0000 E_angle  =         0.0000 
E_vdwl   =       796.1493 E_coul   =     14036.5957 E_long   =    -18629.9990 
Press    =      1144.3747 
SHAKE stats (type/ave/delta/count) on step 14800
     1   1.00000   1.26266e-06     1029
     1   109.470   8.84224e-05      343
---------------- Step    14800 ----- CPU =     12.5739 (sec) ----------------
TotEng   =     -3178.7153 Temp     =       296.3466 KinEng   =       605.0967 
PotEng   =     -3783.8120 E_bond   =         0.0000 E_angle  =         0.0000 
E_vdwl   =       774.0078 E_coul   =     14070.2140 E_long   =    -18628.0338 
Press    =       826.9788 
SHAKE stats (type/ave/delta/count) on step 14900
     1   1.00000   1.64369e-06     1029
     1   109.470   0.000139614      343
---------------- Step    14900 ----- CPU =     12.8456 (sec) ----------------
TotEng   =     -3194.4035 Temp     =       310.4702 KinEng   =       633.9351 
PotEng   =     -3828.3386 E_bond   =         0.0000 E_angle  =         0.0000 
E_vdwl   =       691.8818 E_coul   =     14108.1832 E_long   =    -18628.4036 
Press    =     -1162.8949 
SHAKE stats (type/ave/delta/count) on step 15000
     1   1.00000   9.58364e-07     1029
     1   109.470   8.21618e-05      343
---------------- Step    15000 ----- CPU =     13.0956 (sec) ----------------
TotEng   =     -3208.6206 Temp     =       293.3437 KinEng   =       598.9652 
PotEng   =     -3807.5859 E_bond   =         0.0000 E_angle  =         0.0000 
E_vdwl   =       729.7804 E_coul   =     14091.9490 E_long   =    -18629.3152 
Press    =      -426.8397 
SHAKE stats (type/ave/delta/count) on step 15100
     1   1.00000   1.06575e-06     1029
     1   109.470   0.000104555      343
---------------- Step    15100 ----- CPU =     13.3497 (sec) ----------------
TotEng   =     -3188.1619 Temp     =       307.7841 KinEng   =       628.4504 
PotEng   =     -3816.6123 E_bond   =         0.0000 E_angle  =         0.0000 
E_vdwl   =       766.7818 E_coul   =     14048.8029 E_long   =    -18632.1971 
Press    =       551.6206 
SHAKE stats (type/ave/delta/count) on step 15200
     1   1.00000   1.26224e-06     1029
     1   109.470   8.33714e-05      343
---------------- Step    15200 ----- CPU =     13.6329 (sec) ----------------
TotEng   =     -3184.4531 Temp     =       289.4232 KinEng   =       590.9602 
PotEng   =     -3775.4133 E_bond   =         0.0000 E_angle  =         0.0000 
E_vdwl   =       737.2812 E_coul   =     14115.5269 E_long   =    -18628.2214 
Press    =        95.8614 
SHAKE stats (type/ave/delta/count) on step 15300
     1   1.00000   1.14550e-06     1029
     1   109.470   8.70005e-05      343
---------------- Step    15300 ----- CPU =     13.9084 (sec) ----------------
TotEng   =     -3186.0391 Temp     =       302.3921 KinEng   =       617.4408 
PotEng   =     -3803.4799 E_bond   =         0.0000 E_angle  =         0.0000 
E_vdwl   =       734.8905 E_coul   =     14093.3927 E_long   =    -18631.7632 
Press    =       -92.6177 
SHAKE stats (type/ave/delta/count) on step 15400
     1   1.00000   1.31327e-06     1029
     1   109.470   0.000102880      343
---------------- Step    15400 ----- CPU =     14.1365 (sec) ----------------
TotEng   =     -3199.0797 Temp     =       301.5152 KinEng   =       615.6504 
PotEng   =     -3814.7301 E_bond   =         0.0000 E_angle  =         0.0000 
E_vdwl   =       742.8202 E_coul   =     14071.6107 E_long   =    -18629.1610 
Press    =      -113.7088 
SHAKE stats (type/ave/delta/count) on step 15500
     1   1.00000   1.03334e-06     1029
     1   109.470   0.000109654      343
---------------- Step    15500 ----- CPU =     14.4302 (sec) ----------------
TotEng   =     -3203.5875 Temp     =       292.1617 KinEng   =       596.5518 
PotEng   =     -3800.1393 E_bond   =         0.0000 E_angle  =         0.0000 
E_vdwl   =       734.0729 E_coul   =     14096.4396 E_long   =    -18630.6518 
Press    =      -144.4340 
SHAKE stats (type/ave/delta/count) on step 15600
     1   1.00000   1.55628e-06     1029
     1   109.470   0.000124287      343
---------------- Step    15600 ----- CPU =     14.7081 (sec) ----------------
TotEng   =     -3165.5795 Temp     =       306.7035 KinEng   =       626.2441 
PotEng   =     -3791.8236 E_bond   =         0.0000 E_angle  =         0.0000 
E_vdwl   =       717.8996 E_coul   =     14119.5445 E_long   =    -18629.2676 
Press    =      -373.8804 
SHAKE stats (type/ave/delta/count) on step 15700
     1   1.00000   1.11796e-06     1029
     1   109.470   9.17892e-05      343
---------------- Step    15700 ----- CPU =     14.9617 (sec) ----------------
TotEng   =     -3149.8844 Temp     =       315.5087 KinEng   =       644.2230 
PotEng   =     -3794.1074 E_bond   =         0.0000 E_angle  =         0.0000 
E_vdwl   =       726.0207 E_coul   =     14112.5169 E_long   =    -18632.6450 
Press    =      -177.4448 
SHAKE stats (type/ave/delta/count) on step 15800
     1   1.00000   1.84216e-06     1029
     1   109.470   0.000157438      343
---------------- Step    15800 ----- CPU =     15.2705 (sec) ----------------
TotEng   =     -3182.1403 Temp     =       305.6749 KinEng   =       624.1437 
PotEng   =     -3806.2841 E_bond   =         0.0000 E_angle  =         0.0000 
E_vdwl   =       752.0375 E_coul   =     14072.2312 E_long   =    -18630.5527 
Press    =       110.8442 
SHAKE stats (type/ave/delta/count) on step 15900
     1   1.00000   1.11127e-06     1029
     1   109.470   8.66076e-05      343
---------------- Step    15900 ----- CPU =     15.5710 (sec) ----------------
TotEng   =     -3201.4776 Temp     =       318.9323 KinEng   =       651.2135 
PotEng   =     -3852.6911 E_bond   =         0.0000 E_angle  =         0.0000 
E_vdwl   =       741.8766 E_coul   =     14036.8451 E_long   =    -18631.4128 
Press    =      -312.1457 
SHAKE stats (type/ave/delta/count) on step 16000
     1   1.00000   1.22449e-06     1029
     1   109.470   7.87117e-05      343
[...]
     1   109.470   0.000118631      343
---------------- Step   106200 ----- CPU =    247.9390 (sec) ----------------
TotEng   =     -3201.7366 Temp     =       291.2784 KinEng   =       594.7482 
PotEng   =     -3796.4849 E_bond   =         0.0000 E_angle  =         0.0000 
E_vdwl   =       726.5479 E_coul   =     14108.2350 E_long   =    -18631.2678 
Press    =      -395.1540 
SHAKE stats (type/ave/delta/count) on step 106300
     1   1.00000   1.11729e-06     1029
     1   109.470   0.000100010      343
---------------- Step   106300 ----- CPU =    248.2038 (sec) ----------------
TotEng   =     -3169.6240 Temp     =       307.4418 KinEng   =       627.7515 
PotEng   =     -3797.3755 E_bond   =         0.0000 E_angle  =         0.0000 
E_vdwl   =       768.6201 E_coul   =     14061.6442 E_long   =    -18627.6398 
Press    =       676.4765 
SHAKE stats (type/ave/delta/count) on step 106400
     1   1.00000   1.04510e-06     1029
     1   109.470   9.11139e-05      343
---------------- Step   106400 ----- CPU =    248.4822 (sec) ----------------
TotEng   =     -3155.9940 Temp     =       301.4414 KinEng   =       615.4997 
PotEng   =     -3771.4937 E_bond   =         0.0000 E_angle  =         0.0000 
E_vdwl   =       679.2952 E_coul   =     14174.2328 E_long   =    -18625.0217 
Press    =      -908.3154 
SHAKE stats (type/ave/delta/count) on step 106500
     1   1.00000   1.33514e-06     1029
     1   109.470   0.000171373      343
---------------- Step   106500 ----- CPU =    248.7748 (sec) ----------------
TotEng   =     -3137.7226 Temp     =       303.5319 KinEng   =       619.7682 
PotEng   =     -3757.4908 E_bond   =         0.0000 E_angle  =         0.0000 
E_vdwl   =       695.4997 E_coul   =     14176.2862 E_long   =    -18629.2767 
Press    =      -533.4504 
SHAKE stats (type/ave/delta/count) on step 106600
     1   1.00000   1.39395e-06     1029
     1   109.470   0.000130722      343
---------------- Step   106600 ----- CPU =    249.0610 (sec) ----------------
TotEng   =     -3097.4821 Temp     =       306.5862 KinEng   =       626.0045 
PotEng   =     -3723.4866 E_bond   =         0.0000 E_angle  =         0.0000 
E_vdwl   =       690.8212 E_coul   =     14213.6567 E_long   =    -18627.9645 
Press    =      -446.6771 
SHAKE stats (type/ave/delta/count) on step 106700
     1   1.00000   2.37585e-06     1029
     1   109.470   0.000266785      343
---------------- Step   106700 ----- CPU =    249.3446 (sec) ----------------
TotEng   =     -3099.8493 Temp     =       310.5496 KinEng   =       634.0972 
PotEng   =     -3733.9465 E_bond   =         0.0000 E_angle  =         0.0000 
E_vdwl   =       732.7587 E_coul   =     14161.7864 E_long   =    -18628.4916 
Press    =       311.2027 
SHAKE stats (type/ave/delta/count) on step 106800
     1   1.00000   1.82408e-06     1029
     1   109.470   0.000125770      343
---------------- Step   106800 ----- CPU =    249.5999 (sec) ----------------
TotEng   =     -3160.1387 Temp     =       300.6501 KinEng   =       613.8839 
PotEng   =     -3774.0226 E_bond   =         0.0000 E_angle  =         0.0000 
E_vdwl   =       735.0587 E_coul   =     14119.3294 E_long   =    -18628.4107 
Press    =       175.4320 
SHAKE stats (type/ave/delta/count) on step 106900
     1   1.00000   1.02187e-06     1029
     1   109.470   9.63208e-05      343
---------------- Step   106900 ----- CPU =    249.8417 (sec) ----------------
TotEng   =     -3170.2479 Temp     =       290.4768 KinEng   =       593.1114 
PotEng   =     -3763.3593 E_bond   =         0.0000 E_angle  =         0.0000 
E_vdwl   =       781.8291 E_coul   =     14086.6176 E_long   =    -18631.8060 
Press    =      1345.8346 
SHAKE stats (type/ave/delta/count) on step 107000
     1   1.00000   1.38531e-06     1029
     1   109.470   9.96892e-05      343
---------------- Step   107000 ----- CPU =    250.0971 (sec) ----------------
TotEng   =     -3178.9265 Temp     =       292.8647 KinEng   =       597.9872 
PotEng   =     -3776.9137 E_bond   =         0.0000 E_angle  =         0.0000 
E_vdwl   =       748.3988 E_coul   =     14102.8307 E_long   =    -18628.1432 
Press    =       431.5141 
SHAKE stats (type/ave/delta/count) on step 107100
     1   1.00000   1.08879e-06     1029
     1   109.470   8.65369e-05      343
---------------- Step   107100 ----- CPU =    250.3393 (sec) ----------------
TotEng   =     -3185.4866 Temp     =       287.8793 KinEng   =       587.8077 
PotEng   =     -3773.2942 E_bond   =         0.0000 E_angle  =         0.0000 
E_vdwl   =       739.3706 E_coul   =     14117.0217 E_long   =    -18629.6866 
Press    =       422.6515 
SHAKE stats (type/ave/delta/count) on step 107200
     1   1.00000   1.31718e-06     1029
     1   109.470   0.000111241      343
---------------- Step   107200 ----- CPU =    250.5945 (sec) ----------------
TotEng   =     -3166.9042 Temp     =       294.3879 KinEng   =       601.0974 
PotEng   =     -3768.0016 E_bond   =         0.0000 E_angle  =         0.0000 
E_vdwl   =       730.8678 E_coul   =     14130.6159 E_long   =    -18629.4853 
Press    =       220.9014 
SHAKE stats (type/ave/delta/count) on step 107300
     1   1.00000   1.18007e-06     1029
     1   109.470   9.65339e-05      343
---------------- Step   107300 ----- CPU =    250.8400 (sec) ----------------
TotEng   =     -3133.3342 Temp     =       303.8145 KinEng   =       620.3452 
PotEng   =     -3753.6794 E_bond   =         0.0000 E_angle  =         0.0000 
E_vdwl   =       732.5499 E_coul   =     14142.5021 E_long   =    -18628.7315 
Press    =       426.7031 
SHAKE stats (type/ave/delta/count) on step 107400
     1   1.00000   1.46584e-06     1029
     1   109.470   0.000123150      343
---------------- Step   107400 ----- CPU =    251.1073 (sec) ----------------
TotEng   =     -3131.0395 Temp     =       316.0692 KinEng   =       645.3675 
PotEng   =     -3776.4070 E_bond   =         0.0000 E_angle  =         0.0000 
E_vdwl   =       741.0299 E_coul   =     14112.9850 E_long   =    -18630.4218 
Press    =       393.1104 
SHAKE stats (type/ave/delta/count) on step 107500
     1   1.00000   2.04747e-06     1029
     1   109.470   0.000191599      343
---------------- Step   107500 ----- CPU =    251.3860 (sec) ----------------
TotEng   =     -3188.4701 Temp     =       311.3175 KinEng   =       635.6652 
PotEng   =     -3824.1353 E_bond   =         0.0000 E_angle  =         0.0000 
E_vdwl   =       741.0577 E_coul   =     14065.4559 E_long   =    -18630.6489 
Press    =       108.9382 
SHAKE stats (type/ave/delta/count) on step 107600
     1   1.00000   1.16126e-06     1029
     1   109.470   0.000107919      343
---------------- Step   107600 ----- CPU =    251.6522 (sec) ----------------
TotEng   =     -3195.8250 Temp     =       288.4971 KinEng   =       589.0692 
PotEng   =     -3784.8942 E_bond   =         0.0000 E_angle  =         0.0000 
E_vdwl   =       728.3666 E_coul   =     14118.5272 E_long   =    -18631.7880 
Press    =        16.2711 
SHAKE stats (type/ave/delta/count) on step 107700
     1   1.00000   1.23395e-06     1029
     1   109.470   0.000124160      343
---------------- Step   107700 ----- CPU =    251.8968 (sec) ----------------
TotEng   =     -3166.7771 Temp     =       286.3984 KinEng   =       584.7841 
PotEng   =     -3751.5611 E_bond   =         0.0000 E_angle  =         0.0000 
E_vdwl   =       719.2974 E_coul   =     14157.7726 E_long   =    -18628.6312 
Press    =        49.6486 
SHAKE stats (type/ave/delta/count) on step 107800
     1   1.00000   1.15815e-06     1029
     1   109.470   9.33073e-05      343
---------------- Step   107800 ----- CPU =    252.1398 (sec) ----------------
TotEng   =     -3136.9199 Temp     =       311.8031 KinEng   =       636.6566 
PotEng   =     -3773.5766 E_bond   =         0.0000 E_angle  =         0.0000 
E_vdwl   =       742.8120 E_coul   =     14114.0652 E_long   =    -18630.4538 
Press    =       750.8611 
SHAKE stats (type/ave/delta/count) on step 107900
     1   1.00000   1.28251e-06     1029
     1   109.470   0.000113671      343
---------------- Step   107900 ----- CPU =    252.4154 (sec) ----------------
TotEng   =     -3143.8057 Temp     =       299.7515 KinEng   =       612.0491 
PotEng   =     -3755.8548 E_bond   =         0.0000 E_angle  =         0.0000 
E_vdwl   =       724.3695 E_coul   =     14149.4735 E_long   =    -18629.6979 
Press    =       207.6101 
SHAKE stats (type/ave/delta/count) on step 108000
     1   1.00000   1.29374e-06     1029
     1   109.470   0.000103323      343
---------------- Step   108000 ----- CPU =    252.6911 (sec) ----------------
TotEng   =     -3157.3295 Temp     =       296.1008 KinEng   =       604.5948 
PotEng   =     -3761.9242 E_bond   =         0.0000 E_angle  =         0.0000 
E_vdwl   =       748.7607 E_coul   =     14118.6350 E_long   =    -18629.3199 
Press    =       715.2263 
SHAKE stats (type/ave/delta/count) on step 108100
     1   1.00000   2.09784e-06     1029
     1   109.470   0.000165187      343
---------------- Step   108100 ----- CPU =    252.9165 (sec) ----------------
TotEng   =     -3198.1703 Temp     =       290.3279 KinEng   =       592.8074 
PotEng   =     -3790.9777 E_bond   =         0.0000 E_angle  =         0.0000 
E_vdwl   =       729.7538 E_coul   =     14109.2681 E_long   =    -18629.9995 
Press    =      -103.8639 
SHAKE stats (type/ave/delta/count) on step 108200
     1   1.00000   1.09297e-06     1029
     1   109.470   9.30191e-05      343
---------------- Step   108200 ----- CPU =    253.1756 (sec) ----------------
TotEng   =     -3218.8318 Temp     =       296.6437 KinEng   =       605.7034 
PotEng   =     -3824.5352 E_bond   =         0.0000 E_angle  =         0.0000 
E_vdwl   =       727.1752 E_coul   =     14079.4094 E_long   =    -18631.1197 
Press    =      -364.6494 
SHAKE stats (type/ave/delta/count) on step 108300
     1   1.00000   1.67500e-06     1029
     1   109.470   0.000161639      343
---------------- Step   108300 ----- CPU =    253.4338 (sec) ----------------
TotEng   =     -3188.1438 Temp     =       300.2712 KinEng   =       613.1103 
PotEng   =     -3801.2541 E_bond   =         0.0000 E_angle  =         0.0000 
E_vdwl   =       715.6616 E_coul   =     14110.1084 E_long   =    -18627.0241 
Press    =      -229.1873 
SHAKE stats (type/ave/delta/count) on step 108400
     1   1.00000   1.10142e-06     1029
     1   109.470   8.98159e-05      343
---------------- Step   108400 ----- CPU =    253.7177 (sec) ----------------
TotEng   =     -3167.3392 Temp     =       300.5700 KinEng   =       613.7204 
PotEng   =     -3781.0597 E_bond   =         0.0000 E_angle  =         0.0000 
E_vdwl   =       746.9554 E_coul   =     14099.6170 E_long   =    -18627.6321 
Press    =       451.1525 
SHAKE stats (type/ave/delta/count) on step 108500
     1   1.00000   1.10162e-06     1029
     1   109.470   9.64524e-05      343
---------------- Step   108500 ----- CPU =    253.9770 (sec) ----------------
TotEng   =     -3158.6308 Temp     =       299.9413 KinEng   =       612.4366 
PotEng   =     -3771.0673 E_bond   =         0.0000 E_angle  =         0.0000 
E_vdwl   =       719.4183 E_coul   =     14136.9854 E_long   =    -18627.4710 
Press    =         8.9263 
SHAKE stats (type/ave/delta/count) on step 108600
     1   1.00000   1.15696e-06     1029
     1   109.470   0.000102375      343
---------------- Step   108600 ----- CPU =    254.2143 (sec) ----------------
TotEng   =     -3158.4649 Temp     =       301.4954 KinEng   =       615.6098 
PotEng   =     -3774.0746 E_bond   =         0.0000 E_angle  =         0.0000 
E_vdwl   =       774.4495 E_coul   =     14082.6822 E_long   =    -18631.2064 
Press    =      1089.2035 
SHAKE stats (type/ave/delta/count) on step 108700
     1   1.00000   2.86959e-06     1029
     1   109.470   0.000302105      343
---------------- Step   108700 ----- CPU =    254.4582 (sec) ----------------
TotEng   =     -3195.3065 Temp     =       286.2689 KinEng   =       584.5196 
PotEng   =     -3779.8261 E_bond   =         0.0000 E_angle  =         0.0000 
E_vdwl   =       720.3189 E_coul   =     14130.9236 E_long   =    -18631.0686 
Press    =      -202.7565 
SHAKE stats (type/ave/delta/count) on step 108800
     1   1.00000   1.29022e-06     1029
     1   109.470   8.08814e-05      343
---------------- Step   108800 ----- CPU =    254.6808 (sec) ----------------
TotEng   =     -3226.5346 Temp     =       292.1418 KinEng   =       596.5112 
PotEng   =     -3823.0458 E_bond   =         0.0000 E_angle  =         0.0000 
E_vdwl   =       707.0364 E_coul   =     14098.4044 E_long   =    -18628.4866 
Press    =      -900.0284 
SHAKE stats (type/ave/delta/count) on step 108900
     1   1.00000   1.31963e-06     1029
     1   109.470   0.000147809      343
---------------- Step   108900 ----- CPU =    254.9291 (sec) ----------------
TotEng   =     -3203.6558 Temp     =       286.4427 KinEng   =       584.8744 
PotEng   =     -3788.5302 E_bond   =         0.0000 E_angle  =         0.0000 
E_vdwl   =       743.7033 E_coul   =     14097.8111 E_long   =    -18630.0446 
Press    =       279.9610 
SHAKE stats (type/ave/delta/count) on step 109000
     1   1.00000   1.51625e-06     1029
     1   109.470   9.84230e-05      343
---------------- Step   109000 ----- CPU =    255.1866 (sec) ----------------
TotEng   =     -3165.8735 Temp     =       295.6633 KinEng   =       603.7015 
PotEng   =     -3769.5750 E_bond   =         0.0000 E_angle  =         0.0000 
E_vdwl   =       716.5647 E_coul   =     14143.3715 E_long   =    -18629.5112 
Press    =      -297.5849 
SHAKE stats (type/ave/delta/count) on step 109100
     1   1.00000   1.17554e-06     1029
     1   109.470   9.62585e-05      343
---------------- Step   109100 ----- CPU =    255.4345 (sec) ----------------
TotEng   =     -3152.3533 Temp     =       299.5012 KinEng   =       611.5379 
PotEng   =     -3763.8913 E_bond   =         0.0000 E_angle  =         0.0000 
E_vdwl   =       752.0671 E_coul   =     14113.5436 E_long   =    -18629.5019 
Press    =       639.7405 
SHAKE stats (type/ave/delta/count) on step 109200
     1   1.00000   1.29361e-06     1029
     1   109.470   0.000104874      343
---------------- Step   109200 ----- CPU =    255.6804 (sec) ----------------
TotEng   =     -3147.2534 Temp     =       315.2218 KinEng   =       643.6373 
PotEng   =     -3790.8907 E_bond   =         0.0000 E_angle  =         0.0000 
E_vdwl   =       753.9698 E_coul   =     14084.5779 E_long   =    -18629.4384 
Press    =       549.5240 
SHAKE stats (type/ave/delta/count) on step 109300
     1   1.00000   2.40155e-06     1029
     1   109.470   0.000167992      343
---------------- Step   109300 ----- CPU =    255.9325 (sec) ----------------
TotEng   =     -3183.4319 Temp     =       296.2587 KinEng   =       604.9172 
PotEng   =     -3788.3491 E_bond   =         0.0000 E_angle  =         0.0000 
E_vdwl   =       793.7415 E_coul   =     14046.4651 E_long   =    -18628.5557 
Press    =      1254.8440 
SHAKE stats (type/ave/delta/count) on step 109400
     1   1.00000   1.06143e-06     1029
     1   109.470   9.49435e-05      343
---------------- Step   109400 ----- CPU =    256.2216 (sec) ----------------
TotEng   =     -3210.6457 Temp     =       296.8870 KinEng   =       606.2001 
PotEng   =     -3816.8459 E_bond   =         0.0000 E_angle  =         0.0000 
E_vdwl   =       736.4199 E_coul   =     14078.7344 E_long   =    -18632.0002 
Press    =      -107.0508 
SHAKE stats (type/ave/delta/count) on step 109500
     1   1.00000   9.95395e-07     1029
     1   109.470   0.000105166      343
---------------- Step   109500 ----- CPU =    256.4991 (sec) ----------------
TotEng   =     -3204.0196 Temp     =       299.0743 KinEng   =       610.6664 
PotEng   =     -3814.6860 E_bond   =         0.0000 E_angle  =         0.0000 
E_vdwl   =       726.0470 E_coul   =     14090.0975 E_long   =    -18630.8304 
Press    =      -263.4563 
SHAKE stats (type/ave/delta/count) on step 109600
     1   1.00000   1.07182e-06     1029
     1   109.470   9.97580e-05      343
---------------- Step   109600 ----- CPU =    256.7701 (sec) ----------------
TotEng   =     -3186.1386 Temp     =       289.6121 KinEng   =       591.3458 
PotEng   =     -3777.4844 E_bond   =         0.0000 E_angle  =         0.0000 
E_vdwl   =       762.9398 E_coul   =     14088.5368 E_long   =    -18628.9609 
Press    =       892.8110 
SHAKE stats (type/ave/delta/count) on step 109700
     1   1.00000   1.18600e-06     1029
     1   109.470   0.000135766      343
---------------- Step   109700 ----- CPU =    257.0226 (sec) ----------------
TotEng   =     -3169.0530 Temp     =       303.9463 KinEng   =       620.6142 
PotEng   =     -3789.6672 E_bond   =         0.0000 E_angle  =         0.0000 
E_vdwl   =       689.4944 E_coul   =     14151.9518 E_long   =    -18631.1134 
Press    =      -693.0428 
SHAKE stats (type/ave/delta/count) on step 109800
     1   1.00000   1.12135e-06     1029
     1   109.470   8.47910e-05      343
---------------- Step   109800 ----- CPU =    257.2518 (sec) ----------------
TotEng   =     -3158.0660 Temp     =       300.3474 KinEng   =       613.2657 
PotEng   =     -3771.3317 E_bond   =         0.0000 E_angle  =         0.0000 
E_vdwl   =       735.2186 E_coul   =     14121.4320 E_long   =    -18627.9823 
Press    =       261.9267 
SHAKE stats (type/ave/delta/count) on step 109900
     1   1.00000   9.95618e-07     1029
     1   109.470   8.62949e-05      343
---------------- Step   109900 ----- CPU =    257.5212 (sec) ----------------
TotEng   =     -3150.5853 Temp     =       298.9683 KinEng   =       610.4498 
PotEng   =     -3761.0350 E_bond   =         0.0000 E_angle  =         0.0000 
E_vdwl   =       702.1551 E_coul   =     14162.9527 E_long   =    -18626.1428 
Press    =      -410.9225 
SHAKE stats (type/ave/delta/count) on step 110000
     1   1.00000   1.00249e-06     1029
     1   109.470   9.62146e-05      343
---------------- Step   110000 ----- CPU =    257.7633 (sec) ----------------
TotEng   =     -3153.8549 Temp     =       300.4314 KinEng   =       613.4374 
PotEng   =     -3767.2923 E_bond   =         0.0000 E_angle  =         0.0000 
E_vdwl   =       701.5791 E_coul   =     14159.2826 E_long   =    -18628.1540 
Press    =      -482.1599 
Loop time of 257.763 on 4 procs for 100000 steps with 1029 atoms

Performance: 33.519 ns/day, 0.716 hours/ns, 387.953 timesteps/s
96.9% CPU use with 4 MPI tasks x 1 OpenMP threads

MPI task timing breakdown:
Section |  min time  |  avg time  |  max time  |%varavg| %total
---------------------------------------------------------------
Pair    | 151.15     | 165.89     | 179.79     |  85.3 | 64.36
Bond    | 0.032794   | 0.038157   | 0.04668    |   2.9 |  0.01
Kspace  | 43.358     | 57.347     | 72.085     | 145.2 | 22.25
Neigh   | 12.359     | 12.361     | 12.362     |   0.0 |  4.80
Comm    | 11.615     | 11.693     | 11.763     |   1.6 |  4.54
Output  | 0.095438   | 0.10305    | 0.12559    |   4.1 |  0.04
Modify  | 9.1632     | 9.1683     | 9.1718     |   0.1 |  3.56
Other   |            | 1.166      |            |       |  0.45

Nlocal:        257.250 ave         262 max         251 min
Histogram: 1 0 0 0 1 0 0 0 1 1
Nghost:        5293.25 ave        5350 max        5205 min
Histogram: 1 0 0 0 0 1 0 0 0 2
Neighs:        92746.8 ave      104139 max       81090 min
Histogram: 1 0 0 1 0 0 1 0 0 1

Total # of neighbors = 370987
Ave neighs/atom = 360.53158
Ave special neighs/atom = 2.0000000
Neighbor list builds = 4129
Dangerous builds = 0
System init for write_data ...
PPPM initialization ...
  using 12-bit tables for long-range coulomb (src/kspace.cpp:340)
  G vector (1/distance) = 0.26919
  grid = 12 12 12
  stencil order = 5
  estimated absolute RMS force accuracy = 0.024006429
  estimated relative force accuracy = 7.2294647e-05
  using double precision FFTW3
  3d grid and FFT values/proc = 3211 432
Total wall time: 0:04:44
