
     Program PWSCF v.6.7MaX starts on 12Jun2023 at 18:48:52 

     This program is part of the open-source Quantum ESPRESSO suite
     for quantum simulation of materials; please cite
         "P. Giannozzi et al., J. Phys.:Condens. Matter 21 395502 (2009);
         "P. Giannozzi et al., J. Phys.:Condens. Matter 29 465901 (2017);
          URL http://www.quantum-espresso.org", 
     in publications or presentations arising from this work. More details at
     http://www.quantum-espresso.org/quote

     Parallel version (MPI), running on     6 processors

     MPI processes distributed on     1 nodes
     R & G space division:  proc/nbgrp/npool/nimage =       6
     Waiting for input...
     Reading input from standard input

     Current dimensions of program PWSCF are:
     Max number of different atomic species (ntypx) = 10
     Max number of k-points (npk) =  40000
     Max angular momentum in pseudopotentials (lmaxx) =  3
     file Al.pbe-n-kjpaw_psl.1.0.0.UPF: wavefunction(s)  3S 3P renormalized

     Subspace diagonalization in iterative solution of the eigenvalue problem:
     one sub-group per band group will be used
     scalapack distributed-memory algorithm (size of sub-group:  2*  2 procs)

     Found symmetry operation: I + ( -0.5000  0.0000  0.0000)
     This is a supercell, fractional translations are disabled
     Message from routine setup:
     using ibrav=0 with symmetry is DISCOURAGED, use correct ibrav instead

     Parallelization info
     --------------------
     sticks:   dense  smooth     PW     G-vecs:    dense   smooth      PW
     Min         324     159     46                38864    13709    2107
     Max         325     160     48                38871    13732    2112
     Sum        1945     955    283               233197    82285   12663



     bravais-lattice index     =            0
     lattice parameter (alat)  =      10.8235  a.u.
     unit-cell volume          =    3710.3702 (a.u.)^3
     number of atoms/cell      =           20
     number of atomic types    =            1
     number of electrons       =        60.00
     number of Kohn-Sham states=           36
     kinetic-energy cutoff     =      30.0000  Ry
     charge density cutoff     =     240.0000  Ry
     scf convergence threshold =      1.0E-04
     mixing beta               =       0.7000
     number of iterations used =            8  plain     mixing
     energy convergence thresh.=      1.0E-04
     force convergence thresh. =      1.0E-01
     Exchange-correlation= SLA  PW   PBX  PBC
                           (   1   4   3   4   0   0   0)
     nstep                     =           50


     celldm(1)=  10.823529  celldm(2)=   0.000000  celldm(3)=   0.000000
     celldm(4)=   0.000000  celldm(5)=   0.000000  celldm(6)=   0.000000

     crystal axes: (cart. coord. in units of alat)
               a(1) = (   1.000000   0.000000   0.000000 )  
               a(2) = (   0.500000   0.866025   0.000000 )  
               a(3) = (   0.000000   0.000000   3.378936 )  

     reciprocal axes: (cart. coord. in units 2 pi/alat)
               b(1) = (  1.000000 -0.577350  0.000000 )  
               b(2) = (  0.000000  1.154701  0.000000 )  
               b(3) = (  0.000000  0.000000  0.295951 )  


     PseudoPot. # 1 for Al read from file:
     /home/mini21k/QE/Potential/Al.pbe-n-kjpaw_psl.1.0.0.UPF
     MD5 check sum: cfc449ca30b5f3223ec38ddd88ac046d
     Pseudo is Projector augmented-wave + core cor, Zval =  3.0
     Generated using "atomic" code by A. Dal Corso  v.5.1
     Shape of augmentation charge: PSQ
     Using radial grid of 1135 points,  6 beta functions with: 
                l(1) =   0
                l(2) =   0
                l(3) =   1
                l(4) =   1
                l(5) =   2
                l(6) =   2
     Q(r) pseudized with 0 coefficients 


     atomic species   valence    mass     pseudopotential
        Al             3.00    26.98154     Al( 1.00)

      6 Sym. Ops. (no inversion) found



   Cartesian axes

     site n.     atom                  positions (alat units)
         1           Al  tau(   1) = (   0.0000000   0.2886751   0.0000000  )
         2           Al  tau(   2) = (   0.5000000   0.2886751   0.0000000  )
         3           Al  tau(   3) = (   0.2500000   0.7216878   0.0000000  )
         4           Al  tau(   4) = (   0.7500000   0.7216878   0.0000000  )
         5           Al  tau(   5) = (   0.0000000   0.0000000   0.4082483  )
         6           Al  tau(   6) = (   0.5000000   0.0000000   0.4082483  )
         7           Al  tau(   7) = (   0.2500000   0.4330127   0.4082483  )
         8           Al  tau(   8) = (   0.7500000   0.4330127   0.4082483  )
         9           Al  tau(   9) = (   0.2500000   0.1443376   0.8164966  )
        10           Al  tau(  10) = (   0.7500000   0.1443376   0.8164966  )
        11           Al  tau(  11) = (   0.5000000   0.5773503   0.8164966  )
        12           Al  tau(  12) = (   1.0000000   0.5773503   0.8164966  )
        13           Al  tau(  13) = (   0.0000000   0.2886751   1.2247449  )
        14           Al  tau(  14) = (   0.5000000   0.2886751   1.2247449  )
        15           Al  tau(  15) = (   0.2500000   0.7216878   1.2247449  )
        16           Al  tau(  16) = (   0.7500000   0.7216878   1.2247449  )
        17           Al  tau(  17) = (   0.0000000   0.0000000   1.6329932  )
        18           Al  tau(  18) = (   0.5000000   0.0000000   1.6329932  )
        19           Al  tau(  19) = (   0.2500000   0.4330127   1.6329932  )
        20           Al  tau(  20) = (   0.7500000   0.4330127   1.6329932  )

     number of k points=     3  Gaussian smearing, width (Ry)=  0.0030
                       cart. coord. in units 2pi/alat
        k(    1) = (   0.0000000   0.0000000   0.0000000), wk =   0.2222222
        k(    2) = (   0.0000000   0.3849002   0.0000000), wk =   1.3333333
        k(    3) = (   0.3333333  -0.5773503   0.0000000), wk =   0.4444444

     Dense  grid:   233197 G-vectors     FFT dimensions: (  54,  54, 192)

     Smooth grid:    82285 G-vectors     FFT dimensions: (  40,  40, 128)

     Estimated max dynamical RAM per process >     181.89 MB

     Estimated total dynamical RAM >       1.07 GB

     Initial potential from superposition of free atoms

     starting charge   59.95420, renormalised to   60.00000
     Starting wfcs are   80 randomized atomic wfcs
     Checking if some PAW data can be deallocated... 

     total cpu time spent up to now is        2.7 secs

     Self-consistent Calculation

     iteration #  1     ecut=    30.00 Ry     beta= 0.70
     Davidson diagonalization with overlap
     ethr =  1.00E-02,  avg # of iterations =  3.7

     total cpu time spent up to now is        6.3 secs

     total energy              =    -789.22569314 Ry
     estimated scf accuracy    <       0.92108918 Ry

     iteration #  2     ecut=    30.00 Ry     beta= 0.70
     Davidson diagonalization with overlap
     ethr =  1.54E-03,  avg # of iterations = 10.7

     total cpu time spent up to now is       11.7 secs

     total energy              =    -784.00912042 Ry
     estimated scf accuracy    <     102.09883186 Ry

     iteration #  3     ecut=    30.00 Ry     beta= 0.70
     Davidson diagonalization with overlap
     ethr =  1.54E-03,  avg # of iterations =  9.3

     total cpu time spent up to now is       16.8 secs

     total energy              =    -789.86112076 Ry
     estimated scf accuracy    <       0.33237932 Ry

     iteration #  4     ecut=    30.00 Ry     beta= 0.70
     Davidson diagonalization with overlap
     ethr =  5.54E-04,  avg # of iterations =  5.0

     total cpu time spent up to now is       20.2 secs

     total energy              =    -789.88528046 Ry
     estimated scf accuracy    <       0.20352738 Ry

     iteration #  5     ecut=    30.00 Ry     beta= 0.70
     Davidson diagonalization with overlap
     ethr =  3.39E-04,  avg # of iterations =  2.3

     total cpu time spent up to now is       23.3 secs

     total energy              =    -789.87871874 Ry
     estimated scf accuracy    <       0.40219568 Ry

     iteration #  6     ecut=    30.00 Ry     beta= 0.70
     Davidson diagonalization with overlap
     ethr =  3.39E-04,  avg # of iterations =  1.7

     total cpu time spent up to now is       26.5 secs

     total energy              =    -789.88650301 Ry
     estimated scf accuracy    <       0.11046422 Ry

     iteration #  7     ecut=    30.00 Ry     beta= 0.70
     Davidson diagonalization with overlap
     ethr =  1.84E-04,  avg # of iterations =  1.3

     total cpu time spent up to now is       29.4 secs

     total energy              =    -789.89042991 Ry
     estimated scf accuracy    <       0.01150401 Ry

     iteration #  8     ecut=    30.00 Ry     beta= 0.70
     Davidson diagonalization with overlap
     ethr =  1.92E-05,  avg # of iterations =  8.0

     total cpu time spent up to now is       33.4 secs

     total energy              =    -789.89231652 Ry
     estimated scf accuracy    <       0.00280975 Ry

     iteration #  9     ecut=    30.00 Ry     beta= 0.70
     Davidson diagonalization with overlap
     ethr =  4.68E-06,  avg # of iterations =  4.3

     negative rho (up, down):  1.265E-02 0.000E+00

     total cpu time spent up to now is       36.9 secs

     total energy              =    -789.89213312 Ry
     estimated scf accuracy    <       0.00182943 Ry

     iteration # 10     ecut=    30.00 Ry     beta= 0.70
     Davidson diagonalization with overlap
     ethr =  3.05E-06,  avg # of iterations =  5.0

     total cpu time spent up to now is       40.6 secs

     total energy              =    -789.89205389 Ry
     estimated scf accuracy    <       0.00231596 Ry

     iteration # 11     ecut=    30.00 Ry     beta= 0.70
     Davidson diagonalization with overlap
     ethr =  3.05E-06,  avg # of iterations =  2.0

     total cpu time spent up to now is       43.7 secs

     End of self-consistent calculation

          k = 0.0000 0.0000 0.0000 ( 10311 PWs)   bands (ev):

    -7.6856  -6.9815  -5.8301  -4.3540  -2.4309  -1.8118  -1.8118  -1.8110
    -1.7949  -1.7941  -1.7941  -1.1477  -1.1466  -1.1466  -1.1121  -1.1121
    -1.1109  -0.3898  -0.1847  -0.1847  -0.1838   0.0927   0.0936   0.0936
     1.3144   1.3153   1.3153   1.7508   1.7508   1.7516   2.0260   3.3830
     3.3830   3.3839   3.4563   3.4569

          k = 0.0000 0.3849 0.0000 ( 10310 PWs)   bands (ev):

    -7.0191  -6.3177  -5.1703  -5.0386  -4.3454  -3.6989  -3.2112  -3.0858
    -3.0858  -2.4027  -2.4027  -1.7771  -1.7587  -1.2874  -1.2873   0.1097
     0.1097   0.1310   0.2356   0.7226   0.7228   1.3010   1.3011   2.0197
     2.1220   2.1221   2.6457   2.6797   2.7006   2.7006   3.3728   3.8900
     3.8901   4.0114   4.0115   4.4234

          k = 0.3333-0.5774 0.0000 ( 10290 PWs)   bands (ev):

    -5.6962  -5.6960  -5.6948  -5.0004  -4.9997  -4.9988  -3.8613  -3.8608
    -3.8598  -2.4011  -2.4006  -2.3997  -0.4904  -0.4898  -0.4890   0.0833
     0.0835   0.1240   0.6921   0.7859   0.7859   1.4749   1.4753   1.4761
     1.6339   1.6341   2.1551   2.9162   3.7993   3.7997   3.8004   3.8441
     3.8444   5.4270   5.4521   5.4636

     the Fermi energy is     3.3637 ev

!    total energy              =    -789.89220831 Ry

     total all-electron energy =     -9712.747840 Ry
     estimated scf accuracy    <       0.00007537 Ry
     smearing contrib. (-TS)   =      -0.00152280 Ry
     internal energy E=F+TS    =    -789.89068551 Ry

     The total energy is F=E-TS. E is the sum of the following terms:
     one-electron contribution =    -369.65288315 Ry
     hartree contribution      =     206.15812186 Ry
     xc contribution           =     -51.08983628 Ry
     ewald contribution        =     118.26820086 Ry
     one-center paw contrib.   =    -693.57428881 Ry

     convergence has been achieved in  11 iterations

     Forces acting on atoms (cartesian axes, Ry/au):

     atom    1 type  1   force =     0.00000000   -0.00001846    0.00379231
     atom    2 type  1   force =     0.00000000    0.00000000    0.00383346
     atom    3 type  1   force =     0.00001598    0.00000923    0.00379231
     atom    4 type  1   force =    -0.00001598    0.00000923    0.00379231
     atom    5 type  1   force =     0.00000000    0.00000000   -0.00565872
     atom    6 type  1   force =     0.00000000    0.00002423   -0.00565044
     atom    7 type  1   force =     0.00002098   -0.00001211   -0.00565044
     atom    8 type  1   force =    -0.00002098   -0.00001211   -0.00565044
     atom    9 type  1   force =     0.00000552    0.00000319    0.00025874
     atom   10 type  1   force =    -0.00000552    0.00000319    0.00025874
     atom   11 type  1   force =     0.00000000   -0.00000637    0.00025874
     atom   12 type  1   force =    -0.00000000   -0.00000000    0.00024080
     atom   13 type  1   force =     0.00000000    0.00004649    0.00574980
     atom   14 type  1   force =     0.00000000    0.00000000    0.00574138
     atom   15 type  1   force =    -0.00004027   -0.00002325    0.00574980
     atom   16 type  1   force =     0.00004027   -0.00002325    0.00574980
     atom   17 type  1   force =     0.00000000    0.00000000   -0.00417929
     atom   18 type  1   force =     0.00000000    0.00000417   -0.00414296
     atom   19 type  1   force =     0.00000361   -0.00000209   -0.00414296
     atom   20 type  1   force =    -0.00000361   -0.00000209   -0.00414296

     Total force =     0.018143     Total SCF correction =     0.009608
     SCF correction compared to forces is large: reduce conv_thr to get better values

     BFGS Geometry Optimization
     Energy error            =      0.0E+00
     Gradient error          =      5.7E-03

     bfgs converged in   1 scf cycles and   0 bfgs steps
     (criteria: energy <  1.0E-04 Ry, force <  1.0E-01 Ry/Bohr)

     End of BFGS Geometry Optimization

     Final energy   =    -789.8922083079 Ry
Begin final coordinates

ATOMIC_POSITIONS (angstrom)
Al            0.0000000000        1.6534055764        0.0000000000    0   0   0
Al            2.8637824638        1.6534055764        0.0000000000    0   0   0
Al            1.4318912319        4.1335139409        0.0000000000    0   0   0
Al            4.2956736957        4.1335139409        0.0000000000    0   0   0
Al            0.0000000000        0.0000000000        2.3382685902
Al            2.8637824638        0.0000000000        2.3382685902
Al            1.4318912319        2.4801083646        2.3382685902
Al            4.2956736957        2.4801083646        2.3382685902
Al            1.4318912319        0.8267027882        4.6765371804
Al            4.2956736957        0.8267027882        4.6765371804
Al            2.8637824638        3.3068111528        4.6765371804
Al            5.7275649276        3.3068111528        4.6765371804
Al            0.0000000000        1.6534055764        7.0148057707
Al            2.8637824638        1.6534055764        7.0148057707
Al            1.4318912319        4.1335139409        7.0148057707
Al            4.2956736957        4.1335139409        7.0148057707
Al            0.0000000000        0.0000000000        9.3530743609
Al            2.8637824638        0.0000000000        9.3530743609
Al            1.4318912319        2.4801083646        9.3530743609
Al            4.2956736957        2.4801083646        9.3530743609
End final coordinates



     Writing output data file ./output/pwscf.save/

     init_run     :      2.59s CPU      2.67s WALL (       1 calls)
     electrons    :     39.81s CPU     40.94s WALL (       1 calls)
     forces       :      2.06s CPU      2.15s WALL (       1 calls)

     Called by init_run:
     wfcinit      :      1.30s CPU      1.30s WALL (       1 calls)
     potinit      :      0.59s CPU      0.62s WALL (       1 calls)
     hinit0       :      0.26s CPU      0.26s WALL (       1 calls)

     Called by electrons:
     c_bands      :     21.79s CPU     21.87s WALL (      11 calls)
     sum_band     :      7.57s CPU      8.06s WALL (      11 calls)
     v_of_rho     :      0.76s CPU      0.82s WALL (      12 calls)
     newd         :      4.77s CPU      5.32s WALL (      12 calls)
     PAW_pot      :      5.55s CPU      5.56s WALL (      12 calls)
     mix_rho      :      0.13s CPU      0.15s WALL (      11 calls)

     Called by c_bands:
     init_us_2    :      0.33s CPU      0.34s WALL (      72 calls)
     cegterg      :     20.83s CPU     20.91s WALL (      33 calls)

     Called by *egterg:
     cdiaghg      :      0.38s CPU      0.38s WALL (     193 calls)
     h_psi        :     12.54s CPU     12.62s WALL (     196 calls)
     s_psi        :      4.46s CPU      4.46s WALL (     196 calls)
     g_psi        :      0.03s CPU      0.03s WALL (     160 calls)

     Called by h_psi:
     h_psi:calbec :      5.21s CPU      5.24s WALL (     196 calls)
     vloc_psi     :      2.66s CPU      2.71s WALL (     196 calls)
     add_vuspsi   :      4.64s CPU      4.65s WALL (     196 calls)

     General routines
     calbec       :      7.39s CPU      7.43s WALL (     241 calls)
     fft          :      0.57s CPU      0.61s WALL (     165 calls)
     ffts         :      0.02s CPU      0.02s WALL (      23 calls)
     fftw         :      2.71s CPU      2.76s WALL (    8666 calls)
     interpolate  :      0.06s CPU      0.06s WALL (      12 calls)

     Parallel routines
     fft_scatt_xy :      0.39s CPU      0.40s WALL (    8854 calls)
     fft_scatt_yz :      1.40s CPU      1.44s WALL (    8854 calls)

     PWSCF        :     44.56s CPU     45.86s WALL


   This run was terminated on:  18:49:38  12Jun2023            

=------------------------------------------------------------------------------=
   JOB DONE.
=------------------------------------------------------------------------------=
