Slab                                    
   1.0000000000000000     
     3.958864    0.000000    0.000000
     0.000000    3.958864    0.000000
     0.000000    0.000000    3.958864
   Pt
     4
Direct
  0.000000  0.000000  0.000000
  0.500000  0.500000  0.000000
  0.500000  0.000000  0.500000
  0.000000  0.500000  0.500000

   32   32   32
  235.01      225.55      202.18      174.89      149.52      124.60      97.070      68.550      44.579      28.841    
  19.964      14.701      11.633      9.8149      8.7350      8.1593      7.9792      8.1593      8.7350      9.8149    
  11.633      14.701      19.964      28.841      44.579      68.550      97.070      124.60      149.52      174.89    
  202.18      225.55      225.55      216.79      195.06      169.48      145.22      120.92      93.990      66.327    
  43.306      28.286      19.762      14.680      11.709      9.9437      8.8935      8.3342      8.1593      8.3342    
  8.8935      9.9437      11.709      14.680      19.762      28.286      43.306      66.327      93.990      120.92    
  145.22      169.48      195.06      216.79      202.18      195.06      177.22      155.52      133.73      110.83    
  85.513      60.269      39.891      26.820      19.246      14.671      11.978      10.365      9.4033      8.8935    
  8.7350      8.8935      9.4033      10.365      11.978      14.671      19.246      26.820      39.891      60.269    
  85.513      110.83      133.73      155.52      177.22      195.06      174.89      169.48      155.52      137.48    
  117.86      96.461      73.520      51.917      35.337      24.925      18.642      14.814      12.542      11.173    
  10.365      9.9437      9.8149      9.9437      10.365      11.173      12.542      14.814      18.642      24.925    
  35.337      51.917      73.520      96.461      117.86      137.48      155.52      169.48      149.52      145.22    
  133.73      117.86      99.624      79.918      60.195      43.084      30.768      23.083      18.227      15.290    
  13.558      12.542      11.978      11.709      11.633      11.709      11.978      12.542      13.558      15.290    
  18.227      23.083      30.768      43.084      60.195      79.918      99.624      117.86      133.73      145.22    
  124.60      120.92      110.83      96.461      79.918      62.976      47.496      35.263      26.969      21.630    
  18.265      16.325      15.290      14.814      14.671      14.680      14.701      14.680      14.671      14.814    
  15.290      16.325      18.265      21.630      26.969      35.263      47.496      62.976      79.918      96.461    
  110.83      120.92      97.070      93.990      85.513      73.520      60.195      47.496      36.934      29.272    
  24.173      20.869      19.031      18.265      18.227      18.642      19.246      19.762      19.964      19.762    
  19.246      18.642      18.227      18.265      19.031      20.869      24.173      29.272      36.934      47.496    
  60.195      73.520      85.513      93.990      68.550      66.327      60.269      51.917      43.084      35.263    
  29.272      25.117      22.407      21.051      20.869      21.630      23.083      24.925      26.820      28.286    
  28.841      28.286      26.820      24.925      23.083      21.630      20.869      21.051      22.407      25.117    
  29.272      35.263      43.084      51.917      60.269      66.327      44.579      43.306      39.891      35.337    
  30.768      26.969      24.173      22.407      21.804      22.407      24.173      26.969      30.768      35.337    
  39.891      43.306      44.579      43.306      39.891      35.337      30.768      26.969      24.173      22.407    
  21.804      22.407      24.173      26.969      30.768      35.337      39.891      43.306      28.841      28.286    
  26.820      24.925      23.083      21.630      20.869      21.051      22.407      25.117      29.272      35.263    
  43.084      51.917      60.269      66.327      68.550      66.327      60.269      51.917      43.084      35.263    
  29.272      25.117      22.407      21.051      20.869      21.630      23.083      24.925      26.820      28.286    
  19.964      19.762      19.246      18.642      18.227      18.265      19.031      20.869      24.173      29.272    
  36.934      47.496      60.195      73.520      85.513      93.990      97.070      93.990      85.513      73.520    
  60.195      47.496      36.934      29.272      24.173      20.869      19.031      18.265      18.227      18.642    
  19.246      19.762      14.701      14.680      14.671      14.814      15.290      16.325      18.265      21.630    
  26.969      35.263      47.496      62.976      79.918      96.461      110.83      120.92      124.60      120.92    
  110.83      96.461      79.918      62.976      47.496      35.263      26.969      21.630      18.265      16.325    
  15.290      14.814      14.671      14.680      11.633      11.709      11.978      12.542      13.558      15.290    
  18.227      23.083      30.768      43.084      60.195      79.918      99.624      117.86      133.73      145.22    
  149.52      145.22      133.73      117.86      99.624      79.918      60.195      43.084      30.768      23.083    
  18.227      15.290      13.558      12.542      11.978      11.709      9.8149      9.9437      10.365      11.173    
  12.542      14.814      18.642      24.925      35.337      51.917      73.520      96.461      117.86      137.48    
  155.52      169.48      174.89      169.48      155.52      137.48      117.86      96.461      73.520      51.917    
  35.337      24.925      18.642      14.814      12.542      11.173      10.365      9.9437      8.7350      8.8935    
  9.4033      10.365      11.978      14.671      19.246      26.820      39.891      60.269      85.513      110.83    
  133.73      155.52      177.22      195.06      202.18      195.06      177.22      155.52      133.73      110.83    
  85.513      60.269      39.891      26.820      19.246      14.671      11.978      10.365      9.4033      8.8935    
  8.1593      8.3342      8.8935      9.9437      11.709      14.680      19.762      28.286      43.306      66.327    
  93.990      120.92      145.22      169.48      195.06      216.79      225.55      216.79      195.06      169.48    
  145.22      120.92      93.990      66.327      43.306      28.286      19.762      14.680      11.709      9.9437    
  8.8935      8.3342      7.9792      8.1593      8.7350      9.8149      11.633      14.701      19.964      28.841    
  44.579      68.550      97.070      124.60      149.52      174.89      202.18      225.55      235.01      225.55    
  202.18      174.89      149.52      124.60      97.070      68.550      44.579      28.841      19.964      14.701    
  11.633      9.8149      8.7350      8.1593      8.1593      8.3342      8.8935      9.9437      11.709      14.680    
  19.762      28.286      43.306      66.327      93.990      120.92      145.22      169.48      195.06      216.79    
  225.55      216.79      195.06      169.48      145.22      120.92      93.990      66.327      43.306      28.286    
  19.762      14.680      11.709      9.9437      8.8935      8.3342      8.7350      8.8935      9.4033      10.365    
  11.978      14.671      19.246      26.820      39.891      60.269      85.513      110.83      133.73      155.52    
  177.22      195.06      202.18      195.06      177.22      155.52      133.73      110.83      85.513      60.269    
  39.891      26.820      19.246      14.671      11.978      10.365      9.4033      8.8935      9.8149      9.9437    
  10.365      11.173      12.542      14.814      18.642      24.925      35.337      51.917      73.520      96.461    
  117.86      137.48      155.52      169.48      174.89      169.48      155.52      137.48      117.86      96.461    
  73.520      51.917      35.337      24.925      18.642      14.814      12.542      11.173      10.365      9.9437    
  11.633      11.709      11.978      12.542      13.558      15.290      18.227      23.083      30.768      43.084    
  60.195      79.918      99.624      117.86      133.73      145.22      149.52      145.22      133.73      117.86    
  99.624      79.918      60.195      43.084      30.768      23.083      18.227      15.290      13.558      12.542    
  11.978      11.709      14.701      14.680      14.671      14.814      15.290      16.325      18.265      21.630    
  26.969      35.263      47.496      62.976      79.918      96.461      110.83      120.92      124.60      120.92    
  110.83      96.461      79.918      62.976      47.496      35.263      26.969      21.630      18.265      16.325    
  15.290      14.814      14.671      14.680      19.964      19.762      19.246      18.642      18.227      18.265    
  19.031      20.869      24.173      29.272      36.934      47.496      60.195      73.520      85.513      93.990    
  97.070      93.990      85.513      73.520      60.195      47.496      36.934      29.272      24.173      20.869    
  19.031      18.265      18.227      18.642      19.246      19.762      28.841      28.286      26.820      24.925    
  23.083      21.630      20.869      21.051      22.407      25.117      29.272      35.263      43.084      51.917    
  60.269      66.327      68.550      66.327      60.269      51.917      43.084      35.263      29.272      25.117    
  22.407      21.051      20.869      21.630      23.083      24.925      26.820      28.286      44.579      43.306    
  39.891      35.337      30.768      26.969      24.173      22.407      21.804      22.407      24.173      26.969    
  30.768      35.337      39.891      43.306      44.579      43.306      39.891      35.337      30.768      26.969    
  24.173      22.407      21.804      22.407      24.173      26.969      30.768      35.337      39.891      43.306    
  68.550      66.327      60.269      51.917      43.084      35.263      29.272      25.117      22.407      21.051    
  20.869      21.630      23.083      24.925      26.820      28.286      28.841      28.286      26.820      24.925    
  23.083      21.630      20.869      21.051      22.407      25.117      29.272      35.263      43.084      51.917    
  60.269      66.327      97.070      93.990      85.513      73.520      60.195      47.496      36.934      29.272    
  24.173      20.869      19.031      18.265      18.227      18.642      19.246      19.762      19.964      19.762    
  19.246      18.642      18.227      18.265      19.031      20.869      24.173      29.272      36.934      47.496    
  60.195      73.520      85.513      93.990      124.60      120.92      110.83      96.461      79.918      62.976    
  47.496      35.263      26.969      21.630      18.265      16.325      15.290      14.814      14.671      14.680    
  14.701      14.680      14.671      14.814      15.290      16.325      18.265      21.630      26.969      35.263    
  47.496      62.976      79.918      96.461      110.83      120.92      149.52      145.22      133.73      117.86    
  99.624      79.918      60.195      43.084      30.768      23.083      18.227      15.290      13.558      12.542    
  11.978      11.709      11.633      11.709      11.978      12.542      13.558      15.290      18.227      23.083    
  30.768      43.084      60.195      79.918      99.624      117.86      133.73      145.22      174.89      169.48    
  155.52      137.48      117.86      96.461      73.520      51.917      35.337      24.925      18.642      14.814    
  12.542      11.173      10.365      9.9437      9.8149      9.9437      10.365      11.173      12.542      14.814    
  18.642      24.925      35.337      51.917      73.520      96.461      117.86      137.48      155.52      169.48    
  202.18      195.06      177.22      155.52      133.73      110.83      85.513      60.269      39.891      26.820    
  19.246      14.671      11.978      10.365      9.4033      8.8935      8.7350      8.8935      9.4033      10.365    
  11.978      14.671      19.246      26.820      39.891      60.269      85.513      110.83      133.73      155.52    
  177.22      195.06      225.55      216.79      195.06      169.48      145.22      120.92      93.990      66.327    
  43.306      28.286      19.762      14.680      11.709      9.9437      8.8935      8.3342      8.1593      8.3342    
  8.8935      9.9437      11.709      14.680      19.762      28.286      43.306      66.327      93.990      120.92    
  145.22      169.48      195.06      216.79      225.55      216.79      195.06      169.48      145.22      120.92    
  93.990      66.327      43.306      28.286      19.762      14.680      11.709      9.9437      8.8935      8.3342    
  8.1593      8.3342      8.8935      9.9437      11.709      14.680      19.762      28.286      43.306      66.327    
  93.990      120.92      145.22      169.48      195.06      216.79      216.79      208.65      188.41      164.34    
  141.08      117.35      91.008      64.189      42.088      27.752      19.563      14.656      11.781      10.067    
  9.0466      8.5036      8.3342      8.5036      9.0466      10.067      11.781      14.656      19.563      27.752    
  42.088      64.189      91.008      117.35      141.08      164.34      188.41      208.65      195.06      188.41    
  171.65      151.04      129.97      107.55      82.802      58.363      38.819      26.342      19.055      14.640    
  12.035      10.471      9.5397      9.0466      8.8935      9.0466      9.5397      10.471      12.035      14.640    
  19.055      26.342      38.819      58.363      82.802      107.55      129.97      151.04      171.65      188.41    
  169.48      164.34      151.04      133.68      114.54      93.560      71.196      50.336      34.463      24.514    
  18.459      14.769      12.574      11.252      10.471      10.067      9.9437      10.067      10.471      11.252    
  12.574      14.769      18.459      24.514      34.463      50.336      71.196      93.560      114.54      133.68    
  151.04      164.34      145.22      141.08      129.97      114.54      96.705      77.457      58.323      41.863    
  30.091      22.723      18.047      15.220      13.551      12.574      12.035      11.781      11.709      11.781    
  12.035      12.574      13.551      15.220      18.047      22.723      30.091      41.863      58.323      77.457    
  96.705      114.54      129.97      141.08      120.92      117.35      107.55      93.560      77.457      61.022    
  46.096      34.377      26.449      21.310      18.075      16.211      15.220      14.769      14.640      14.656    
  14.680      14.656      14.640      14.769      15.220      16.211      18.075      21.310      26.449      34.377    
  46.096      61.022      77.457      93.560      107.55      117.35      93.990      91.008      82.802      71.196    
  58.323      46.096      35.972      28.648      23.749      20.570      18.806      18.075      18.047      18.459    
  19.055      19.563      19.762      19.563      19.055      18.459      18.047      18.075      18.806      20.570    
  23.749      28.648      35.972      46.096      58.323      71.196      82.802      91.008      66.327      64.189    
  58.363      50.336      41.863      34.377      28.648      24.653      22.044      20.742      20.570      21.310    
  22.723      24.514      26.342      27.752      28.286      27.752      26.342      24.514      22.723      21.310    
  20.570      20.742      22.044      24.653      28.648      34.377      41.863      50.336      58.363      64.189    
  43.306      42.088      38.819      34.463      30.091      26.449      23.749      22.044      21.463      22.044    
  23.749      26.449      30.091      34.463      38.819      42.088      43.306      42.088      38.819      34.463    
  30.091      26.449      23.749      22.044      21.463      22.044      23.749      26.449      30.091      34.463    
  38.819      42.088      28.286      27.752      26.342      24.514      22.723      21.310      20.570      20.742    
  22.044      24.653      28.648      34.377      41.863      50.336      58.363      64.189      66.327      64.189    
  58.363      50.336      41.863      34.377      28.648      24.653      22.044      20.742      20.570      21.310    
  22.723      24.514      26.342      27.752      19.762      19.563      19.055      18.459      18.047      18.075    
  18.806      20.570      23.749      28.648      35.972      46.096      58.323      71.196      82.802      91.008    
  93.990      91.008      82.802      71.196      58.323      46.096      35.972      28.648      23.749      20.570    
  18.806      18.075      18.047      18.459      19.055      19.563      14.680      14.656      14.640      14.769    
  15.220      16.211      18.075      21.310      26.449      34.377      46.096      61.022      77.457      93.560    
  107.55      117.35      120.92      117.35      107.55      93.560      77.457      61.022      46.096      34.377    
  26.449      21.310      18.075      16.211      15.220      14.769      14.640      14.656      11.709      11.781    
  12.035      12.574      13.551      15.220      18.047      22.723      30.091      41.863      58.323      77.457    
  96.705      114.54      129.97      141.08      145.22      141.08      129.97      114.54      96.705      77.457    
  58.323      41.863      30.091      22.723      18.047      15.220      13.551      12.574      12.035      11.781    
  9.9437      10.067      10.471      11.252      12.574      14.769      18.459      24.514      34.463      50.336    
  71.196      93.560      114.54      133.68      151.04      164.34      169.48      164.34      151.04      133.68    
  114.54      93.560      71.196      50.336      34.463      24.514      18.459      14.769      12.574      11.252    
  10.471      10.067      8.8935      9.0466      9.5397      10.471      12.035      14.640      19.055      26.342    
  38.819      58.363      82.802      107.55      129.97      151.04      171.65      188.41      195.06      188.41    
  171.65      151.04      129.97      107.55      82.802      58.363      38.819      26.342      19.055      14.640    
  12.035      10.471      9.5397      9.0466      8.3342      8.5036      9.0466      10.067      11.781      14.656    
  19.563      27.752      42.088      64.189      91.008      117.35      141.08      164.34      188.41      208.65    
  216.79      208.65      188.41      164.34      141.08      117.35      91.008      64.189      42.088      27.752    
  19.563      14.656      11.781      10.067      9.0466      8.5036      8.1593      8.3342      8.8935      9.9437    
  11.709      14.680      19.762      28.286      43.306      66.327      93.990      120.92      145.22      169.48    
  195.06      216.79      225.55      216.79      195.06      169.48      145.22      120.92      93.990      66.327    
  43.306      28.286      19.762      14.680      11.709      9.9437      8.8935      8.3342      8.3342      8.5036    
  9.0466      10.067      11.781      14.656      19.563      27.752      42.088      64.189      91.008      117.35    
  141.08      164.34      188.41      208.65      216.79      208.65      188.41      164.34      141.08      117.35    
  91.008      64.189      42.088      27.752      19.563      14.656      11.781      10.067      9.0466      8.5036    
  8.8935      9.0466      9.5397      10.471      12.035      14.640      19.055      26.342      38.819      58.363    
  82.802      107.55      129.97      151.04      171.65      188.41      195.06      188.41      171.65      151.04    
  129.97      107.55      82.802      58.363      38.819      26.342      19.055      14.640      12.035      10.471    
  9.5397      9.0466      9.9437      10.067      10.471      11.252      12.574      14.769      18.459      24.514    
  34.463      50.336      71.196      93.560      114.54      133.68      151.04      164.34      169.48      164.34    
  151.04      133.68      114.54      93.560      71.196      50.336      34.463      24.514      18.459      14.769    
  12.574      11.252      10.471      10.067      11.709      11.781      12.035      12.574      13.551      15.220    
  18.047      22.723      30.091      41.863      58.323      77.457      96.705      114.54      129.97      141.08    
  145.22      141.08      129.97      114.54      96.705      77.457      58.323      41.863      30.091      22.723    
  18.047      15.220      13.551      12.574      12.035      11.781      14.680      14.656      14.640      14.769    
  15.220      16.211      18.075      21.310      26.449      34.377      46.096      61.022      77.457      93.560    
  107.55      117.35      120.92      117.35      107.55      93.560      77.457      61.022      46.096      34.377    
  26.449      21.310      18.075      16.211      15.220      14.769      14.640      14.656      19.762      19.563    
  19.055      18.459      18.047      18.075      18.806      20.570      23.749      28.648      35.972      46.096    
  58.323      71.196      82.802      91.008      93.990      91.008      82.802      71.196      58.323      46.096    
  35.972      28.648      23.749      20.570      18.806      18.075      18.047      18.459      19.055      19.563    
  28.286      27.752      26.342      24.514      22.723      21.310      20.570      20.742      22.044      24.653    
  28.648      34.377      41.863      50.336      58.363      64.189      66.327      64.189      58.363      50.336    
  41.863      34.377      28.648      24.653      22.044      20.742      20.570      21.310      22.723      24.514    
  26.342      27.752      43.306      42.088      38.819      34.463      30.091      26.449      23.749      22.044    
  21.463      22.044      23.749      26.449      30.091      34.463      38.819      42.088      43.306      42.088    
  38.819      34.463      30.091      26.449      23.749      22.044      21.463      22.044      23.749      26.449    
  30.091      34.463      38.819      42.088      66.327      64.189      58.363      50.336      41.863      34.377    
  28.648      24.653      22.044      20.742      20.570      21.310      22.723      24.514      26.342      27.752    
  28.286      27.752      26.342      24.514      22.723      21.310      20.570      20.742      22.044      24.653    
  28.648      34.377      41.863      50.336      58.363      64.189      93.990      91.008      82.802      71.196    
  58.323      46.096      35.972      28.648      23.749      20.570      18.806      18.075      18.047      18.459    
  19.055      19.563      19.762      19.563      19.055      18.459      18.047      18.075      18.806      20.570    
  23.749      28.648      35.972      46.096      58.323      71.196      82.802      91.008      120.92      117.35    
  107.55      93.560      77.457      61.022      46.096      34.377      26.449      21.310      18.075      16.211    
  15.220      14.769      14.640      14.656      14.680      14.656      14.640      14.769      15.220      16.211    
  18.075      21.310      26.449      34.377      46.096      61.022      77.457      93.560      107.55      117.35    
  145.22      141.08      129.97      114.54      96.705      77.457      58.323      41.863      30.091      22.723    
  18.047      15.220      13.551      12.574      12.035      11.781      11.709      11.781      12.035      12.574    
  13.551      15.220      18.047      22.723      30.091      41.863      58.323      77.457      96.705      114.54    
  129.97      141.08      169.48      164.34      151.04      133.68      114.54      93.560      71.196      50.336    
  34.463      24.514      18.459      14.769      12.574      11.252      10.471      10.067      9.9437      10.067    
  10.471      11.252      12.574      14.769      18.459      24.514      34.463      50.336      71.196      93.560    
  114.54      133.68      151.04      164.34      195.06      188.41      171.65      151.04      129.97      107.55    
  82.802      58.363      38.819      26.342      19.055      14.640      12.035      10.471      9.5397      9.0466    
  8.8935      9.0466      9.5397      10.471      12.035      14.640      19.055      26.342      38.819      58.363    
  82.802      107.55      129.97      151.04      171.65      188.41      216.79      208.65      188.41      164.34    
  141.08      117.35      91.008      64.189      42.088      27.752      19.563      14.656      11.781      10.067    
  9.0466      8.5036      8.3342      8.5036      9.0466      10.067      11.781      14.656      19.563      27.752    
  42.088      64.189      91.008      117.35      141.08      164.34      188.41      208.65      202.18      195.06    
  177.22      155.52      133.73      110.83      85.513      60.269      39.891      26.820      19.246      14.671    
  11.978      10.365      9.4033      8.8935      8.7350      8.8935      9.4033      10.365      11.978      14.671    
  19.246      26.820      39.891      60.269      85.513      110.83      133.73      155.52      177.22      195.06    
  195.06      188.41      171.65      151.04      129.97      107.55      82.802      58.363      38.819      26.342    
  19.055      14.640      12.035      10.471      9.5397      9.0466      8.8935      9.0466      9.5397      10.471    
  12.035      14.640      19.055      26.342      38.819      58.363      82.802      107.55      129.97      151.04    
  171.65      188.41      177.22      171.65      157.41      139.27      119.79      98.500      75.342      53.174    
  35.945      25.075      18.564      14.599      12.246      10.827      9.9827      9.5397      9.4033      9.5397    
  9.9827      10.827      12.246      14.599      18.564      25.075      35.945      53.174      75.342      98.500    
  119.79      139.27      157.41      171.65      155.52      151.04      139.27      123.43      105.41      85.543    
  64.810      46.045      32.116      23.410      17.987      14.682      12.710      11.522      10.827      10.471    
  10.365      10.471      10.827      11.522      12.710      14.682      17.987      23.410      32.116      46.045    
  64.810      85.543      105.41      123.43      139.27      151.04      133.73      129.97      119.79      105.41    
  88.630      70.662      53.197      38.555      28.267      21.750      17.576      15.057      13.572      12.710    
  12.246      12.035      11.978      12.035      12.246      12.710      13.572      15.057      17.576      21.750    
  28.267      38.555      53.197      70.662      88.630      105.41      119.79      129.97      110.83      107.55    
  98.500      85.543      70.662      55.655      42.283      31.977      25.029      20.441      17.569      15.922    
  15.057      14.682      14.599      14.640      14.671      14.640      14.599      14.682      15.057      15.922    
  17.569      20.441      25.029      31.977      42.283      55.655      70.662      85.543      98.500      107.55    
  85.513      82.802      75.342      64.810      53.197      42.283      33.361      26.946      22.580      19.755    
  18.200      17.569      17.576      17.987      18.564      19.055      19.246      19.055      18.564      17.987    
  17.576      17.569      18.200      19.755      22.580      26.946      33.361      42.283      53.197      64.810    
  75.342      82.802      60.269      58.363      53.174      46.045      38.555      31.977      26.946      23.374    
  21.043      19.892      19.755      20.441      21.750      23.410      25.075      26.342      26.820      26.342    
  25.075      23.410      21.750      20.441      19.755      19.892      21.043      23.374      26.946      31.977    
  38.555      46.045      53.174      58.363      39.891      38.819      35.945      32.116      28.267      25.029    
  22.580      21.043      20.522      21.043      22.580      25.029      28.267      32.116      35.945      38.819    
  39.891      38.819      35.945      32.116      28.267      25.029      22.580      21.043      20.522      21.043    
  22.580      25.029      28.267      32.116      35.945      38.819      26.820      26.342      25.075      23.410    
  21.750      20.441      19.755      19.892      21.043      23.374      26.946      31.977      38.555      46.045    
  53.174      58.363      60.269      58.363      53.174      46.045      38.555      31.977      26.946      23.374    
  21.043      19.892      19.755      20.441      21.750      23.410      25.075      26.342      19.246      19.055    
  18.564      17.987      17.576      17.569      18.200      19.755      22.580      26.946      33.361      42.283    
  53.197      64.810      75.342      82.802      85.513      82.802      75.342      64.810      53.197      42.283    
  33.361      26.946      22.580      19.755      18.200      17.569      17.576      17.987      18.564      19.055    
  14.671      14.640      14.599      14.682      15.057      15.922      17.569      20.441      25.029      31.977    
  42.283      55.655      70.662      85.543      98.500      107.55      110.83      107.55      98.500      85.543    
  70.662      55.655      42.283      31.977      25.029      20.441      17.569      15.922      15.057      14.682    
  14.599      14.640      11.978      12.035      12.246      12.710      13.572      15.057      17.576      21.750    
  28.267      38.555      53.197      70.662      88.630      105.41      119.79      129.97      133.73      129.97    