Slab                                    
   1.0000000000000000     
     3.958864    0.000000    0.000000
     0.000000    3.958864    0.000000
     0.000000    0.000000    3.958864
   Pt
     4
Direct
  0.000000  0.000000  0.000000
  0.500000  0.500000  0.000000
  0.500000  0.000000  0.500000
  0.000000  0.500000  0.500000

   32   32   32
 0.23501005780E+03 0.22555438269E+03 0.20217935439E+03 0.17489492519E+03 0.14951987758E+03
 0.12460254836E+03 0.97069928857E+02 0.68550447995E+02 0.44579479883E+02 0.28841149648E+02
 0.19963864133E+02 0.14701356858E+02 0.11632665138E+02 0.98149095461E+01 0.87350194372E+01
 0.81593437946E+01 0.79792185080E+01 0.81593437946E+01 0.87350194372E+01 0.98149095461E+01
 0.11632665138E+02 0.14701356858E+02 0.19963864133E+02 0.28841149648E+02 0.44579479883E+02
 0.68550447995E+02 0.97069928857E+02 0.12460254836E+03 0.14951987758E+03 0.17489492519E+03
 0.20217935439E+03 0.22555438269E+03 0.22555438269E+03 0.21678987600E+03 0.19506289805E+03
 0.16947638093E+03 0.14522161570E+03 0.12092265823E+03 0.93989560947E+02 0.66327455001E+02
 0.43306393425E+02 0.28285588361E+02 0.19761915179E+02 0.14679863709E+02 0.11709038408E+02
 0.99436690301E+01 0.88935343692E+01 0.83341599877E+01 0.81593437946E+01 0.83341599877E+01
 0.88935343692E+01 0.99436690301E+01 0.11709038408E+02 0.14679863709E+02 0.19761915179E+02
 0.28285588361E+02 0.43306393425E+02 0.66327455001E+02 0.93989560947E+02 0.12092265823E+03
 0.14522161570E+03 0.16947638093E+03 0.19506289805E+03 0.21678987600E+03 0.20217935439E+03
 0.19506289805E+03 0.17721587097E+03 0.15551678695E+03 0.13372693205E+03 0.11083158868E+03
 0.85512985975E+02 0.60269495067E+02 0.39891028310E+02 0.26820057117E+02 0.19245593758E+02
 0.14670796692E+02 0.11977719896E+02 0.10364551123E+02 0.94032804146E+01 0.88935343692E+01
 0.87350194372E+01 0.88935343692E+01 0.94032804146E+01 0.10364551123E+02 0.11977719896E+02
 0.14670796692E+02 0.19245593758E+02 0.26820057117E+02 0.39891028310E+02 0.60269495067E+02
 0.85512985975E+02 0.11083158868E+03 0.13372693205E+03 0.15551678695E+03 0.17721587097E+03
 0.19506289805E+03 0.17489492519E+03 0.16947638093E+03 0.15551678695E+03 0.13748427126E+03
 0.11786414981E+03 0.96461314923E+02 0.73519805853E+02 0.51916528423E+02 0.35337229187E+02
 0.24925026463E+02 0.18642113332E+02 0.14814254970E+02 0.12541989066E+02 0.11173457539E+02
 0.10364551123E+02 0.99436690301E+01 0.98149095461E+01 0.99436690301E+01 0.10364551123E+02
 0.11173457539E+02 0.12541989066E+02 0.14814254970E+02 0.18642113332E+02 0.24925026463E+02
 0.35337229187E+02 0.51916528423E+02 0.73519805853E+02 0.96461314923E+02 0.11786414981E+03
 0.13748427126E+03 0.15551678695E+03 0.16947638093E+03 0.14951987758E+03 0.14522161570E+03
 0.13372693205E+03 0.11786414981E+03 0.99624489428E+02 0.79917950195E+02 0.60194704178E+02
 0.43083876666E+02 0.30768044249E+02 0.23082576029E+02 0.18227081310E+02 0.15290408712E+02
 0.13557808072E+02 0.12541989066E+02 0.11977719896E+02 0.11709038408E+02 0.11632665138E+02
 0.11709038408E+02 0.11977719896E+02 0.12541989066E+02 0.13557808072E+02 0.15290408712E+02
 0.18227081310E+02 0.23082576029E+02 0.30768044249E+02 0.43083876666E+02 0.60194704178E+02
 0.79917950195E+02 0.99624489428E+02 0.11786414981E+03 0.13372693205E+03 0.14522161570E+03
 0.12460254836E+03 0.12092265823E+03 0.11083158868E+03 0.96461314923E+02 0.79917950195E+02
 0.62975726954E+02 0.47495502603E+02 0.35263086991E+02 0.26969127202E+02 0.21629653946E+02
 0.18265111862E+02 0.16325032295E+02 0.15290408712E+02 0.14814254970E+02 0.14670796692E+02
 0.14679863709E+02 0.14701356858E+02 0.14679863709E+02 0.14670796692E+02 0.14814254970E+02
 0.15290408712E+02 0.16325032295E+02 0.18265111862E+02 0.21629653946E+02 0.26969127202E+02
 0.35263086991E+02 0.47495502603E+02 0.62975726954E+02 0.79917950195E+02 0.96461314923E+02
 0.11083158868E+03 0.12092265823E+03 0.97069928857E+02 0.93989560947E+02 0.85512985975E+02
 0.73519805853E+02 0.60194704178E+02 0.47495502603E+02 0.36933513106E+02 0.29272182420E+02
 0.24173431289E+02 0.20868662760E+02 0.19030720541E+02 0.18265111862E+02 0.18227081310E+02
 0.18642113332E+02 0.19245593758E+02 0.19761915179E+02 0.19963864133E+02 0.19761915179E+02
 0.19245593758E+02 0.18642113332E+02 0.18227081310E+02 0.18265111862E+02 0.19030720541E+02
 0.20868662760E+02 0.24173431289E+02 0.29272182420E+02 0.36933513106E+02 0.47495502603E+02
 0.60194704178E+02 0.73519805853E+02 0.85512985975E+02 0.93989560947E+02 0.68550447995E+02
 0.66327455001E+02 0.60269495067E+02 0.51916528423E+02 0.43083876666E+02 0.35263086991E+02
 0.29272182420E+02 0.25117205384E+02 0.22406817735E+02 0.21050751766E+02 0.20868662760E+02
 0.21629653946E+02 0.23082576029E+02 0.24925026463E+02 0.26820057117E+02 0.28285588361E+02
 0.28841149648E+02 0.28285588361E+02 0.26820057117E+02 0.24925026463E+02 0.23082576029E+02
 0.21629653946E+02 0.20868662760E+02 0.21050751766E+02 0.22406817735E+02 0.25117205384E+02
 0.29272182420E+02 0.35263086991E+02 0.43083876666E+02 0.51916528423E+02 0.60269495067E+02
 0.66327455001E+02 0.44579479883E+02 0.43306393425E+02 0.39891028310E+02 0.35337229187E+02
 0.30768044249E+02 0.26969127202E+02 0.24173431289E+02 0.22406817735E+02 0.21803985608E+02
 0.22406817735E+02 0.24173431289E+02 0.26969127202E+02 0.30768044249E+02 0.35337229187E+02
 0.39891028310E+02 0.43306393425E+02 0.44579479883E+02 0.43306393425E+02 0.39891028310E+02
 0.35337229187E+02 0.30768044249E+02 0.26969127202E+02 0.24173431289E+02 0.22406817735E+02
 0.21803985608E+02 0.22406817735E+02 0.24173431289E+02 0.26969127202E+02 0.30768044249E+02
 0.35337229187E+02 0.39891028310E+02 0.43306393425E+02 0.28841149648E+02 0.28285588361E+02
 0.26820057117E+02 0.24925026463E+02 0.23082576029E+02 0.21629653946E+02 0.20868662760E+02
 0.21050751766E+02 0.22406817735E+02 0.25117205384E+02 0.29272182420E+02 0.35263086991E+02
 0.43083876666E+02 0.51916528423E+02 0.60269495067E+02 0.66327455001E+02 0.68550447995E+02
 0.66327455001E+02 0.60269495067E+02 0.51916528423E+02 0.43083876666E+02 0.35263086991E+02
 0.29272182420E+02 0.25117205384E+02 0.22406817735E+02 0.21050751766E+02 0.20868662760E+02
 0.21629653946E+02 0.23082576029E+02 0.24925026463E+02 0.26820057117E+02 0.28285588361E+02
 0.19963864133E+02 0.19761915179E+02 0.19245593758E+02 0.18642113332E+02 0.18227081310E+02
 0.18265111862E+02 0.19030720541E+02 0.20868662760E+02 0.24173431289E+02 0.29272182420E+02
 0.36933513106E+02 0.47495502603E+02 0.60194704178E+02 0.73519805853E+02 0.85512985975E+02
 0.93989560947E+02 0.97069928857E+02 0.93989560947E+02 0.85512985975E+02 0.73519805853E+02
 0.60194704178E+02 0.47495502603E+02 0.36933513106E+02 0.29272182420E+02 0.24173431289E+02
 0.20868662760E+02 0.19030720541E+02 0.18265111862E+02 0.18227081310E+02 0.18642113332E+02
 0.19245593758E+02 0.19761915179E+02 0.14701356858E+02 0.14679863709E+02 0.14670796692E+02
 0.14814254970E+02 0.15290408712E+02 0.16325032295E+02 0.18265111862E+02 0.21629653946E+02
 0.26969127202E+02 0.35263086991E+02 0.47495502603E+02 0.62975726954E+02 0.79917950195E+02
 0.96461314923E+02 0.11083158868E+03 0.12092265823E+03 0.12460254836E+03 0.12092265823E+03
 0.11083158868E+03 0.96461314923E+02 0.79917950195E+02 0.62975726954E+02 0.47495502603E+02
 0.35263086991E+02 0.26969127202E+02 0.21629653946E+02 0.18265111862E+02 0.16325032295E+02
 0.15290408712E+02 0.14814254970E+02 0.14670796692E+02 0.14679863709E+02 0.11632665138E+02
 0.11709038408E+02 0.11977719896E+02 0.12541989066E+02 0.13557808072E+02 0.15290408712E+02
 0.18227081310E+02 0.23082576029E+02 0.30768044249E+02 0.43083876666E+02 0.60194704178E+02
 0.79917950195E+02 0.99624489428E+02 0.11786414981E+03 0.13372693205E+03 0.14522161570E+03
 0.14951987758E+03 0.14522161570E+03 0.13372693205E+03 0.11786414981E+03 0.99624489428E+02
 0.79917950195E+02 0.60194704178E+02 0.43083876666E+02 0.30768044249E+02 0.23082576029E+02
 0.18227081310E+02 0.15290408712E+02 0.13557808072E+02 0.12541989066E+02 0.11977719896E+02
 0.11709038408E+02 0.98149095461E+01 0.99436690301E+01 0.10364551123E+02 0.11173457539E+02
 0.12541989066E+02 0.14814254970E+02 0.18642113332E+02 0.24925026463E+02 0.35337229187E+02
 0.51916528423E+02 0.73519805853E+02 0.96461314923E+02 0.11786414981E+03 0.13748427126E+03
 0.15551678695E+03 0.16947638093E+03 0.17489492519E+03 0.16947638093E+03 0.15551678695E+03
 0.13748427126E+03 0.11786414981E+03 0.96461314923E+02 0.73519805853E+02 0.51916528423E+02
 0.35337229187E+02 0.24925026463E+02 0.18642113332E+02 0.14814254970E+02 0.12541989066E+02
 0.11173457539E+02 0.10364551123E+02 0.99436690301E+01 0.87350194372E+01 0.88935343692E+01
 0.94032804146E+01 0.10364551123E+02 0.11977719896E+02 0.14670796692E+02 0.19245593758E+02
 0.26820057117E+02 0.39891028310E+02 0.60269495067E+02 0.85512985975E+02 0.11083158868E+03
 0.13372693205E+03 0.15551678695E+03 0.17721587097E+03 0.19506289805E+03 0.20217935439E+03
 0.19506289805E+03 0.17721587097E+03 0.15551678695E+03 0.13372693205E+03 0.11083158868E+03
 0.85512985975E+02 0.60269495067E+02 0.39891028310E+02 0.26820057117E+02 0.19245593758E+02
 0.14670796692E+02 0.11977719896E+02 0.10364551123E+02 0.94032804146E+01 0.88935343692E+01
 0.81593437946E+01 0.83341599877E+01 0.88935343692E+01 0.99436690301E+01 0.11709038408E+02
 0.14679863709E+02 0.19761915179E+02 0.28285588361E+02 0.43306393425E+02 0.66327455001E+02
 0.93989560947E+02 0.12092265823E+03 0.14522161570E+03 0.16947638093E+03 0.19506289805E+03
 0.21678987600E+03 0.22555438269E+03 0.21678987600E+03 0.19506289805E+03 0.16947638093E+03
 0.14522161570E+03 0.12092265823E+03 0.93989560947E+02 0.66327455001E+02 0.43306393425E+02
 0.28285588361E+02 0.19761915179E+02 0.14679863709E+02 0.11709038408E+02 0.99436690301E+01
 0.88935343692E+01 0.83341599877E+01 0.79792185080E+01 0.81593437946E+01 0.87350194372E+01
 0.98149095461E+01 0.11632665138E+02 0.14701356858E+02 0.19963864133E+02 0.28841149648E+02
 0.44579479883E+02 0.68550447995E+02 0.97069928857E+02 0.12460254836E+03 0.14951987758E+03
 0.17489492519E+03 0.20217935439E+03 0.22555438269E+03 0.23501005780E+03 0.22555438269E+03
 0.20217935439E+03 0.17489492519E+03 0.14951987758E+03 0.12460254836E+03 0.97069928857E+02
 0.68550447995E+02 0.44579479883E+02 0.28841149648E+02 0.19963864133E+02 0.14701356858E+02
 0.11632665138E+02 0.98149095461E+01 0.87350194372E+01 0.81593437946E+01 0.81593437946E+01
 0.83341599877E+01 0.88935343692E+01 0.99436690301E+01 0.11709038408E+02 0.14679863709E+02
 0.19761915179E+02 0.28285588361E+02 0.43306393425E+02 0.66327455001E+02 0.93989560947E+02
 0.12092265823E+03 0.14522161570E+03 0.16947638093E+03 0.19506289805E+03 0.21678987600E+03
 0.22555438269E+03 0.21678987600E+03 0.19506289805E+03 0.16947638093E+03 0.14522161570E+03
 0.12092265823E+03 0.93989560947E+02 0.66327455001E+02 0.43306393425E+02 0.28285588361E+02
 0.19761915179E+02 0.14679863709E+02 0.11709038408E+02 0.99436690301E+01 0.88935343692E+01
 0.83341599877E+01 0.87350194372E+01 0.88935343692E+01 0.94032804146E+01 0.10364551123E+02
 0.11977719896E+02 0.14670796692E+02 0.19245593758E+02 0.26820057117E+02 0.39891028310E+02
 0.60269495067E+02 0.85512985975E+02 0.11083158868E+03 0.13372693205E+03 0.15551678695E+03
 0.17721587097E+03 0.19506289805E+03 0.20217935439E+03 0.19506289805E+03 0.17721587097E+03
 0.15551678695E+03 0.13372693205E+03 0.11083158868E+03 0.85512985975E+02 0.60269495067E+02
 0.39891028310E+02 0.26820057117E+02 0.19245593758E+02 0.14670796692E+02 0.11977719896E+02
 0.10364551123E+02 0.94032804146E+01 0.88935343692E+01 0.98149095461E+01 0.99436690301E+01
 0.10364551123E+02 0.11173457539E+02 0.12541989066E+02 0.14814254970E+02 0.18642113332E+02
 0.24925026463E+02 0.35337229187E+02 0.51916528423E+02 0.73519805853E+02 0.96461314923E+02
 0.11786414981E+03 0.13748427126E+03 0.15551678695E+03 0.16947638093E+03 0.17489492519E+03
 0.16947638093E+03 0.15551678695E+03 0.13748427126E+03 0.11786414981E+03 0.96461314923E+02
 0.73519805853E+02 0.51916528423E+02 0.35337229187E+02 0.24925026463E+02 0.18642113332E+02
 0.14814254970E+02 0.12541989066E+02 0.11173457539E+02 0.10364551123E+02 0.99436690301E+01
 0.11632665138E+02 0.11709038408E+02 0.11977719896E+02 0.12541989066E+02 0.13557808072E+02
 0.15290408712E+02 0.18227081310E+02 0.23082576029E+02 0.30768044249E+02 0.43083876666E+02
 0.60194704178E+02 0.79917950195E+02 0.99624489428E+02 0.11786414981E+03 0.13372693205E+03
 0.14522161570E+03 0.14951987758E+03 0.14522161570E+03 0.13372693205E+03 0.11786414981E+03
 0.99624489428E+02 0.79917950195E+02 0.60194704178E+02 0.43083876666E+02 0.30768044249E+02
 0.23082576029E+02 0.18227081310E+02 0.15290408712E+02 0.13557808072E+02 0.12541989066E+02
 0.11977719896E+02 0.11709038408E+02 0.14701356858E+02 0.14679863709E+02 0.14670796692E+02
 0.14814254970E+02 0.15290408712E+02 0.16325032295E+02 0.18265111862E+02 0.21629653946E+02
 0.26969127202E+02 0.35263086991E+02 0.47495502603E+02 0.62975726954E+02 0.79917950195E+02
 0.96461314923E+02 0.11083158868E+03 0.12092265823E+03 0.12460254836E+03 0.12092265823E+03
 0.11083158868E+03 0.96461314923E+02 0.79917950195E+02 0.62975726954E+02 0.47495502603E+02
 0.35263086991E+02 0.26969127202E+02 0.21629653946E+02 0.18265111862E+02 0.16325032295E+02
 0.15290408712E+02 0.14814254970E+02 0.14670796692E+02 0.14679863709E+02 0.19963864133E+02
 0.19761915179E+02 0.19245593758E+02 0.18642113332E+02 0.18227081310E+02 0.18265111862E+02
 0.19030720541E+02 0.20868662760E+02 0.24173431289E+02 0.29272182420E+02 0.36933513106E+02
 0.47495502603E+02 0.60194704178E+02 0.73519805853E+02 0.85512985975E+02 0.93989560947E+02
 0.97069928857E+02 0.93989560947E+02 0.85512985975E+02 0.73519805853E+02 0.60194704178E+02
 0.47495502603E+02 0.36933513106E+02 0.29272182420E+02 0.24173431289E+02 0.20868662760E+02
 0.19030720541E+02 0.18265111862E+02 0.18227081310E+02 0.18642113332E+02 0.19245593758E+02
 0.19761915179E+02 0.28841149648E+02 0.28285588361E+02 0.26820057117E+02 0.24925026463E+02
 0.23082576029E+02 0.21629653946E+02 0.20868662760E+02 0.21050751766E+02 0.22406817735E+02
 0.25117205384E+02 0.29272182420E+02 0.35263086991E+02 0.43083876666E+02 0.51916528423E+02
 0.60269495067E+02 0.66327455001E+02 0.68550447995E+02 0.66327455001E+02 0.60269495067E+02
 0.51916528423E+02 0.43083876666E+02 0.35263086991E+02 0.29272182420E+02 0.25117205384E+02
 0.22406817735E+02 0.21050751766E+02 0.20868662760E+02 0.21629653946E+02 0.23082576029E+02
 0.24925026463E+02 0.26820057117E+02 0.28285588361E+02 0.44579479883E+02 0.43306393425E+02
 0.39891028310E+02 0.35337229187E+02 0.30768044249E+02 0.26969127202E+02 0.24173431289E+02
 0.22406817735E+02 0.21803985608E+02 0.22406817735E+02 0.24173431289E+02 0.26969127202E+02
 0.30768044249E+02 0.35337229187E+02 0.39891028310E+02 0.43306393425E+02 0.44579479883E+02
 0.43306393425E+02 0.39891028310E+02 0.35337229187E+02 0.30768044249E+02 0.26969127202E+02
 0.24173431289E+02 0.22406817735E+02 0.21803985608E+02 0.22406817735E+02 0.24173431289E+02
 0.26969127202E+02 0.30768044249E+02 0.35337229187E+02 0.39891028310E+02 0.43306393425E+02
 0.68550447995E+02 0.66327455001E+02 0.60269495067E+02 0.51916528423E+02 0.43083876666E+02
 0.35263086991E+02 0.29272182420E+02 0.25117205384E+02 0.22406817735E+02 0.21050751766E+02
 0.20868662760E+02 0.21629653946E+02 0.23082576029E+02 0.24925026463E+02 0.26820057117E+02
 0.28285588361E+02 0.28841149648E+02 0.28285588361E+02 0.26820057117E+02 0.24925026463E+02
 0.23082576029E+02 0.21629653946E+02 0.20868662760E+02 0.21050751766E+02 0.22406817735E+02
 0.25117205384E+02 0.29272182420E+02 0.35263086991E+02 0.43083876666E+02 0.51916528423E+02
 0.60269495067E+02 0.66327455001E+02 0.97069928857E+02 0.93989560947E+02 0.85512985975E+02
 0.73519805853E+02 0.60194704178E+02 0.47495502603E+02 0.36933513106E+02 0.29272182420E+02
 0.24173431289E+02 0.20868662760E+02 0.19030720541E+02 0.18265111862E+02 0.18227081310E+02
 0.18642113332E+02 0.19245593758E+02 0.19761915179E+02 0.19963864133E+02 0.19761915179E+02
 0.19245593758E+02 0.18642113332E+02 0.18227081310E+02 0.18265111862E+02 0.19030720541E+02
 0.20868662760E+02 0.24173431289E+02 0.29272182420E+02 0.36933513106E+02 0.47495502603E+02
 0.60194704178E+02 0.73519805853E+02 0.85512985975E+02 0.93989560947E+02 0.12460254836E+03
 0.12092265823E+03 0.11083158868E+03 0.96461314923E+02 0.79917950195E+02 0.62975726954E+02
 0.47495502603E+02 0.35263086991E+02 0.26969127202E+02 0.21629653946E+02 0.18265111862E+02
 0.16325032295E+02 0.15290408712E+02 0.14814254970E+02 0.14670796692E+02 0.14679863709E+02
 0.14701356858E+02 0.14679863709E+02 0.14670796692E+02 0.14814254970E+02 0.15290408712E+02
 0.16325032295E+02 0.18265111862E+02 0.21629653946E+02 0.26969127202E+02 0.35263086991E+02
 0.47495502603E+02 0.62975726954E+02 0.79917950195E+02 0.96461314923E+02 0.11083158868E+03
 0.12092265823E+03 0.14951987758E+03 0.14522161570E+03 0.13372693205E+03 0.11786414981E+03
 0.99624489428E+02 0.79917950195E+02 0.60194704178E+02 0.43083876666E+02 0.30768044249E+02
 0.23082576029E+02 0.18227081310E+02 0.15290408712E+02 0.13557808072E+02 0.12541989066E+02
 0.11977719896E+02 0.11709038408E+02 0.11632665138E+02 0.11709038408E+02 0.11977719896E+02
 0.12541989066E+02 0.13557808072E+02 0.15290408712E+02 0.18227081310E+02 0.23082576029E+02
 0.30768044249E+02 0.43083876666E+02 0.60194704178E+02 0.79917950195E+02 0.99624489428E+02
 0.11786414981E+03 0.13372693205E+03 0.14522161570E+03 0.17489492519E+03 0.16947638093E+03
 0.15551678695E+03 0.13748427126E+03 0.11786414981E+03 0.96461314923E+02 0.73519805853E+02
 0.51916528423E+02 0.35337229187E+02 0.24925026463E+02 0.18642113332E+02 0.14814254970E+02
 0.12541989066E+02 0.11173457539E+02 0.10364551123E+02 0.99436690301E+01 0.98149095461E+01
 0.99436690301E+01 0.10364551123E+02 0.11173457539E+02 0.12541989066E+02 0.14814254970E+02
 0.18642113332E+02 0.24925026463E+02 0.35337229187E+02 0.51916528423E+02 0.73519805853E+02
 0.96461314923E+02 0.11786414981E+03 0.13748427126E+03 0.15551678695E+03 0.16947638093E+03
 0.20217935439E+03 0.19506289805E+03 0.17721587097E+03 0.15551678695E+03 0.13372693205E+03
 0.11083158868E+03 0.85512985975E+02 0.60269495067E+02 0.39891028310E+02 0.26820057117E+02
 0.19245593758E+02 0.14670796692E+02 0.11977719896E+02 0.10364551123E+02 0.94032804146E+01
 0.88935343692E+01 0.87350194372E+01 0.88935343692E+01 0.94032804146E+01 0.10364551123E+02
 0.11977719896E+02 0.14670796692E+02 0.19245593758E+02 0.26820057117E+02 0.39891028310E+02
 0.60269495067E+02 0.85512985975E+02 0.11083158868E+03 0.13372693205E+03 0.15551678695E+03
 0.17721587097E+03 0.19506289805E+03 0.22555438269E+03 0.21678987600E+03 0.19506289805E+03
 0.16947638093E+03 0.14522161570E+03 0.12092265823E+03 0.93989560947E+02 0.66327455001E+02
 0.43306393425E+02 0.28285588361E+02 0.19761915179E+02 0.14679863709E+02 0.11709038408E+02
 0.99436690301E+01 0.88935343692E+01 0.83341599877E+01 0.81593437946E+01 0.83341599877E+01
 0.88935343692E+01 0.99436690301E+01 0.11709038408E+02 0.14679863709E+02 0.19761915179E+02
 0.28285588361E+02 0.43306393425E+02 0.66327455001E+02 0.93989560947E+02 0.12092265823E+03
 0.14522161570E+03 0.16947638093E+03 0.19506289805E+03 0.21678987600E+03 0.22555438269E+03
 0.21678987600E+03 0.19506289805E+03 0.16947638093E+03 0.14522161570E+03 0.12092265823E+03
 0.93989560947E+02 0.66327455001E+02 0.43306393425E+02 0.28285588361E+02 0.19761915179E+02
 0.14679863709E+02 0.11709038408E+02 0.99436690301E+01 0.88935343692E+01 0.83341599877E+01
 0.81593437946E+01 0.83341599877E+01 0.88935343692E+01 0.99436690301E+01 0.11709038408E+02
 0.14679863709E+02 0.19761915179E+02 0.28285588361E+02 0.43306393425E+02 0.66327455001E+02
 0.93989560947E+02 0.12092265823E+03 0.14522161570E+03 0.16947638093E+03 0.19506289805E+03
 0.21678987600E+03 0.21678987600E+03 0.20865055854E+03 0.18840865130E+03 0.16434116383E+03
 0.14108363023E+03 0.11735290996E+03 0.91007837084E+02 0.64188792451E+02 0.42087823192E+02
 0.27751894311E+02 0.19563095821E+02 0.14656124829E+02 0.11780713767E+02 0.10067013848E+02
 0.90465952528E+01 0.85036210588E+01 0.83341599877E+01 0.85036210588E+01 0.90465952528E+01
 0.10067013848E+02 0.11780713767E+02 0.14656124829E+02 0.19563095821E+02 0.27751894311E+02
 0.42087823192E+02 0.64188792451E+02 0.91007837084E+02 0.11735290996E+03 0.14108363023E+03
 0.16434116383E+03 0.18840865130E+03 0.20865055854E+03 0.19506289805E+03 0.18840865130E+03
 0.17164866021E+03 0.15104316295E+03 0.12997368885E+03 0.10754860989E+03 0.82801874107E+02
 0.58362636537E+02 0.38819295297E+02 0.26342320568E+02 0.19054502393E+02 0.14639613546E+02
 0.12035063732E+02 0.10471494509E+02 0.95397405113E+01 0.90465952528E+01 0.88935343692E+01
 0.90465952528E+01 0.95397405113E+01 0.10471494509E+02 0.12035063732E+02 0.14639613546E+02
 0.19054502393E+02 0.26342320568E+02 0.38819295297E+02 0.58362636537E+02 0.82801874107E+02
 0.10754860989E+03 0.12997368885E+03 0.15104316295E+03 0.17164866021E+03 0.18840865130E+03
 0.16947638093E+03 0.16434116383E+03 0.15104316295E+03 0.13367814007E+03 0.11454058798E+03
 0.93560466648E+02 0.71195878466E+02 0.50336410256E+02 0.34462570819E+02 0.24513648447E+02
 0.18459121517E+02 0.14768541103E+02 0.12574359282E+02 0.11251817067E+02 0.10471494509E+02
 0.10067013848E+02 0.99436690301E+01 0.10067013848E+02 0.10471494509E+02 0.11251817067E+02
 0.12574359282E+02 0.14768541103E+02 0.18459121517E+02 0.24513648447E+02 0.34462570819E+02
 0.50336410256E+02 0.71195878466E+02 0.93560466648E+02 0.11454058798E+03 0.13367814007E+03
 0.15104316295E+03 0.16434116383E+03 0.14522161570E+03 0.14108363023E+03 0.12997368885E+03
 0.11454058798E+03 0.96705234778E+02 0.77457033813E+02 0.58322674588E+02 0.41863285052E+02
 0.30091057751E+02 0.22723220402E+02 0.18046906943E+02 0.15219621407E+02 0.13550948830E+02
 0.12574359282E+02 0.12035063732E+02 0.11780713767E+02 0.11709038408E+02 0.11780713767E+02
 0.12035063732E+02 0.12574359282E+02 0.13550948830E+02 0.15219621407E+02 0.18046906943E+02
 0.22723220402E+02 0.30091057751E+02 0.41863285052E+02 0.58322674588E+02 0.77457033813E+02
 0.96705234778E+02 0.11454058798E+03 0.12997368885E+03 0.14108363023E+03 0.12092265823E+03
 0.11735290996E+03 0.10754860989E+03 0.93560466648E+02 0.77457033813E+02 0.61021577496E+02
 0.46096070265E+02 0.34377280635E+02 0.26448738410E+02 0.21309997439E+02 0.18074917707E+02
 0.16211056111E+02 0.15219621407E+02 0.14768541103E+02 0.14639613546E+02 0.14656124829E+02
 0.14679863709E+02 0.14656124829E+02 0.14639613546E+02 0.14768541103E+02 0.15219621407E+02
 0.16211056111E+02 0.18074917707E+02 0.21309997439E+02 0.26448738410E+02 0.34377280635E+02
 0.46096070265E+02 0.61021577496E+02 0.77457033813E+02 0.93560466648E+02 0.10754860989E+03
 0.11735290996E+03 0.93989560947E+02 0.91007837084E+02 0.82801874107E+02 0.71195878466E+02
 0.58322674588E+02 0.46096070265E+02 0.35972192916E+02 0.28648434273E+02 0.23748554435E+02
 0.20570183601E+02 0.18806230335E+02 0.18074917707E+02 0.18046906943E+02 0.18459121517E+02
 0.19054502393E+02 0.19563095821E+02 0.19761915179E+02 0.19563095821E+02 0.19054502393E+02
 0.18459121517E+02 0.18046906943E+02 0.18074917707E+02 0.18806230335E+02 0.20570183601E+02
 0.23748554435E+02 0.28648434273E+02 0.35972192916E+02 0.46096070265E+02 0.58322674588E+02
 0.71195878466E+02 0.82801874107E+02 0.91007837084E+02 0.66327455001E+02 0.64188792451E+02
 0.58362636537E+02 0.50336410256E+02 0.41863285052E+02 0.34377280635E+02 0.28648434273E+02
 0.24653409324E+02 0.22043564573E+02 0.20741556173E+02 0.20570183601E+02 0.21309997439E+02
 0.22723220402E+02 0.24513648447E+02 0.26342320568E+02 0.27751894311E+02 0.28285588361E+02
 0.27751894311E+02 0.26342320568E+02 0.24513648447E+02 0.22723220402E+02 0.21309997439E+02
 0.20570183601E+02 0.20741556173E+02 0.22043564573E+02 0.24653409324E+02 0.28648434273E+02
 0.34377280635E+02 0.41863285052E+02 0.50336410256E+02 0.58362636537E+02 0.64188792451E+02
 0.43306393425E+02 0.42087823192E+02 0.38819295297E+02 0.34462570819E+02 0.30091057751E+02
 0.26448738410E+02 0.23748554435E+02 0.22043564573E+02 0.21462933330E+02 0.22043564573E+02
 0.23748554435E+02 0.26448738410E+02 0.30091057751E+02 0.34462570819E+02 0.38819295297E+02
 0.42087823192E+02 0.43306393425E+02 0.42087823192E+02 0.38819295297E+02 0.34462570819E+02
 0.30091057751E+02 0.26448738410E+02 0.23748554435E+02 0.22043564573E+02 0.21462933330E+02
 0.22043564573E+02 0.23748554435E+02 0.26448738410E+02 0.30091057751E+02 0.34462570819E+02
 0.38819295297E+02 0.42087823192E+02 0.28285588361E+02 0.27751894311E+02 0.26342320568E+02
 0.24513648447E+02 0.22723220402E+02 0.21309997439E+02 0.20570183601E+02 0.20741556173E+02
 0.22043564573E+02 0.24653409324E+02 0.28648434273E+02 0.34377280635E+02 0.41863285052E+02
 0.50336410256E+02 0.58362636537E+02 0.64188792451E+02 0.66327455001E+02 0.64188792451E+02
 0.58362636537E+02 0.50336410256E+02 0.41863285052E+02 0.34377280635E+02 0.28648434273E+02
 0.24653409324E+02 0.22043564573E+02 0.20741556173E+02 0.20570183601E+02 0.21309997439E+02
 0.22723220402E+02 0.24513648447E+02 0.26342320568E+02 0.27751894311E+02 0.19761915179E+02
 0.19563095821E+02 0.19054502393E+02 0.18459121517E+02 0.18046906943E+02 0.18074917707E+02
 0.18806230335E+02 0.20570183601E+02 0.23748554435E+02 0.28648434273E+02 0.35972192916E+02
 0.46096070265E+02 0.58322674588E+02 0.71195878466E+02 0.82801874107E+02 0.91007837084E+02
 0.93989560947E+02 0.91007837084E+02 0.82801874107E+02 0.71195878466E+02 0.58322674588E+02
 0.46096070265E+02 0.35972192916E+02 0.28648434273E+02 0.23748554435E+02 0.20570183601E+02
 0.18806230335E+02 0.18074917707E+02 0.18046906943E+02 0.18459121517E+02 0.19054502393E+02
 0.19563095821E+02 0.14679863709E+02 0.14656124829E+02 0.14639613546E+02 0.14768541103E+02
 0.15219621407E+02 0.16211056111E+02 0.18074917707E+02 0.21309997439E+02 0.26448738410E+02
 0.34377280635E+02 0.46096070265E+02 0.61021577496E+02 0.77457033813E+02 0.93560466648E+02
 0.10754860989E+03 0.11735290996E+03 0.12092265823E+03 0.11735290996E+03 0.10754860989E+03
 0.93560466648E+02 0.77457033813E+02 0.61021577496E+02 0.46096070265E+02 0.34377280635E+02
 0.26448738410E+02 0.21309997439E+02 0.18074917707E+02 0.16211056111E+02 0.15219621407E+02
 0.14768541103E+02 0.14639613546E+02 0.14656124829E+02 0.11709038408E+02 0.11780713767E+02
 0.12035063732E+02 0.12574359282E+02 0.13550948830E+02 0.15219621407E+02 0.18046906943E+02
 0.22723220402E+02 0.30091057751E+02 0.41863285052E+02 0.58322674588E+02 0.77457033813E+02
 0.96705234778E+02 0.11454058798E+03 0.12997368885E+03 0.14108363023E+03 0.14522161570E+03
 0.14108363023E+03 0.12997368885E+03 0.11454058798E+03 0.96705234778E+02 0.77457033813E+02
 0.58322674588E+02 0.41863285052E+02 0.30091057751E+02 0.22723220402E+02 0.18046906943E+02
 0.15219621407E+02 0.13550948830E+02 0.12574359282E+02 0.12035063732E+02 0.11780713767E+02
 0.99436690301E+01 0.10067013848E+02 0.10471494509E+02 0.11251817067E+02 0.12574359282E+02
 0.14768541103E+02 0.18459121517E+02 0.24513648447E+02 0.34462570819E+02 0.50336410256E+02
 0.71195878466E+02 0.93560466648E+02 0.11454058798E+03 0.13367814007E+03 0.15104316295E+03
 0.16434116383E+03 0.16947638093E+03 0.16434116383E+03 0.15104316295E+03 0.13367814007E+03
 0.11454058798E+03 0.93560466648E+02 0.71195878466E+02 0.50336410256E+02 0.34462570819E+02
 0.24513648447E+02 0.18459121517E+02 0.14768541103E+02 0.12574359282E+02 0.11251817067E+02
 0.10471494509E+02 0.10067013848E+02 0.88935343692E+01 0.90465952528E+01 0.95397405113E+01
 0.10471494509E+02 0.12035063732E+02 0.14639613546E+02 0.19054502393E+02 0.26342320568E+02
 0.38819295297E+02 0.58362636537E+02 0.82801874107E+02 0.10754860989E+03 0.12997368885E+03
 0.15104316295E+03 0.17164866021E+03 0.18840865130E+03 0.19506289805E+03 0.18840865130E+03
 0.17164866021E+03 0.15104316295E+03 0.12997368885E+03 0.10754860989E+03 0.82801874107E+02
 0.58362636537E+02 0.38819295297E+02 0.26342320568E+02 0.19054502393E+02 0.14639613546E+02
 0.12035063732E+02 0.10471494509E+02 0.95397405113E+01 0.90465952528E+01 0.83341599877E+01
 0.85036210588E+01 0.90465952528E+01 0.10067013848E+02 0.11780713767E+02 0.14656124829E+02
 0.19563095821E+02 0.27751894311E+02 0.42087823192E+02 0.64188792451E+02 0.91007837084E+02
 0.11735290996E+03 0.14108363023E+03 0.16434116383E+03 0.18840865130E+03 0.20865055854E+03
 0.21678987600E+03 0.20865055854E+03 0.18840865130E+03 0.16434116383E+03 0.14108363023E+03
 0.11735290996E+03 0.91007837084E+02 0.64188792451E+02 0.42087823192E+02 0.27751894311E+02
 0.19563095821E+02 0.14656124829E+02 0.11780713767E+02 0.10067013848E+02 0.90465952528E+01
 0.85036210588E+01 0.81593437946E+01 0.83341599877E+01 0.88935343692E+01 0.99436690301E+01
 0.11709038408E+02 0.14679863709E+02 0.19761915179E+02 0.28285588361E+02 0.43306393425E+02
 0.66327455001E+02 0.93989560947E+02 0.12092265823E+03 0.14522161570E+03 0.16947638093E+03
 0.19506289805E+03 0.21678987600E+03 0.22555438269E+03 0.21678987600E+03 0.19506289805E+03
 0.16947638093E+03 0.14522161570E+03 0.12092265823E+03 0.93989560947E+02 0.66327455001E+02
 0.43306393425E+02 0.28285588361E+02 0.19761915179E+02 0.14679863709E+02 0.11709038408E+02
 0.99436690301E+01 0.88935343692E+01 0.83341599877E+01 0.83341599877E+01 0.85036210588E+01
 0.90465952528E+01 0.10067013848E+02 0.11780713767E+02 0.14656124829E+02 0.19563095821E+02
 0.27751894311E+02 0.42087823192E+02 0.64188792451E+02 0.91007837084E+02 0.11735290996E+03
 0.14108363023E+03 0.16434116383E+03 0.18840865130E+03 0.20865055854E+03 0.21678987600E+03
 0.20865055854E+03 0.18840865130E+03 0.16434116383E+03 0.14108363023E+03 0.11735290996E+03
 0.91007837084E+02 0.64188792451E+02 0.42087823192E+02 0.27751894311E+02 0.19563095821E+02
 0.14656124829E+02 0.11780713767E+02 0.10067013848E+02 0.90465952528E+01 0.85036210588E+01
 0.88935343692E+01 0.90465952528E+01 0.95397405113E+01 0.10471494509E+02 0.12035063732E+02
 0.14639613546E+02 0.19054502393E+02 0.26342320568E+02 0.38819295297E+02 0.58362636537E+02
 0.82801874107E+02 0.10754860989E+03 0.12997368885E+03 0.15104316295E+03 0.17164866021E+03
 0.18840865130E+03 0.19506289805E+03 0.18840865130E+03 0.17164866021E+03 0.15104316295E+03
 0.12997368885E+03 0.10754860989E+03 0.82801874107E+02 0.58362636537E+02 0.38819295297E+02