  67  67   0   0
  0.5111729E+02  0.1121440E-08  0.1121440E-08  0.3144560E-08  0.1500000E-16
  1.000000000000000E-004
  CAR 
 Pt                                      
      5.82847567    -24.33856783  301     -0.91940476      1.00000000
    -24.339  0.0000E+00  0.0000E+00
    -24.238  0.0000E+00  0.0000E+00
    -24.137  0.0000E+00  0.0000E+00
    -24.037  0.0000E+00  0.0000E+00
    -23.936  0.0000E+00  0.0000E+00
    -23.836 -0.1008E-33 -0.1013E-34
    -23.735 -0.1249E-26 -0.1256E-27
    -23.635 -0.2014E-20 -0.2025E-21
    -23.534 -0.4068E-15 -0.4091E-16
    -23.434 -0.1072E-10 -0.1078E-11
    -23.333 -0.3512E-07 -0.3533E-08
    -23.232 -0.1350E-04 -0.1361E-05
    -23.132 -0.4818E-03 -0.4981E-04
    -23.031  0.1976E-02  0.1489E-03
    -22.931  0.1714E-01  0.1872E-02
    -22.830  0.5808E-02  0.2456E-02
    -22.730 -0.7288E-03  0.2383E-02
    -22.629 -0.4656E-04  0.2378E-02
    -22.529 -0.2231E-06  0.2378E-02
    -22.428 -0.1215E-09  0.2378E-02
    -22.327 -0.8145E-14  0.2378E-02
    -22.227  0.0000E+00  0.2378E-02
    -22.126  0.0000E+00  0.2378E-02
    -22.026  0.0000E+00  0.2378E-02
    -21.925  0.0000E+00  0.2378E-02
    -21.825  0.0000E+00  0.2378E-02
    -21.724  0.0000E+00  0.2378E-02
    -21.624  0.0000E+00  0.2378E-02
    -21.523  0.0000E+00  0.2378E-02
    -21.422  0.0000E+00  0.2378E-02
    -21.322  0.0000E+00  0.2378E-02
    -21.221  0.0000E+00  0.2378E-02
    -21.121  0.0000E+00  0.2378E-02
    -21.020  0.0000E+00  0.2378E-02
    -20.920  0.0000E+00  0.2378E-02
    -20.819  0.0000E+00  0.2378E-02
    -20.719  0.0000E+00  0.2378E-02
    -20.618  0.0000E+00  0.2378E-02
    -20.517  0.0000E+00  0.2378E-02
    -20.417  0.0000E+00  0.2378E-02
    -20.316  0.0000E+00  0.2378E-02
    -20.216  0.0000E+00  0.2378E-02
    -20.115  0.0000E+00  0.2378E-02
    -20.015  0.0000E+00  0.2378E-02
    -19.914  0.0000E+00  0.2378E-02
    -19.814  0.0000E+00  0.2378E-02
    -19.713  0.0000E+00  0.2378E-02
    -19.612  0.0000E+00  0.2378E-02
    -19.512  0.0000E+00  0.2378E-02
    -19.411  0.0000E+00  0.2378E-02
    -19.311  0.0000E+00  0.2378E-02
    -19.210  0.0000E+00  0.2378E-02
    -19.110  0.0000E+00  0.2378E-02
    -19.009  0.0000E+00  0.2378E-02
    -18.908  0.0000E+00  0.2378E-02
    -18.808  0.0000E+00  0.2378E-02
    -18.707  0.0000E+00  0.2378E-02
    -18.607  0.0000E+00  0.2378E-02
    -18.506  0.0000E+00  0.2378E-02
    -18.406  0.0000E+00  0.2378E-02
    -18.305  0.0000E+00  0.2378E-02
    -18.205  0.0000E+00  0.2378E-02
    -18.104  0.0000E+00  0.2378E-02
    -18.003  0.0000E+00  0.2378E-02
    -17.903  0.0000E+00  0.2378E-02
    -17.802  0.0000E+00  0.2378E-02
    -17.702  0.0000E+00  0.2378E-02
    -17.601  0.0000E+00  0.2378E-02
    -17.501  0.0000E+00  0.2378E-02
    -17.400  0.0000E+00  0.2378E-02
    -17.300  0.0000E+00  0.2378E-02
    -17.199  0.0000E+00  0.2378E-02
    -17.098  0.0000E+00  0.2378E-02
    -16.998  0.0000E+00  0.2378E-02
    -16.897  0.0000E+00  0.2378E-02
    -16.797  0.0000E+00  0.2378E-02
    -16.696  0.0000E+00  0.2378E-02
    -16.596  0.0000E+00  0.2378E-02
    -16.495  0.0000E+00  0.2378E-02
    -16.395  0.0000E+00  0.2378E-02
    -16.294  0.0000E+00  0.2378E-02
    -16.193  0.0000E+00  0.2378E-02
    -16.093  0.0000E+00  0.2378E-02
    -15.992  0.0000E+00  0.2378E-02
    -15.892  0.0000E+00  0.2378E-02
    -15.791  0.0000E+00  0.2378E-02
    -15.691  0.0000E+00  0.2378E-02
    -15.590  0.0000E+00  0.2378E-02
    -15.490  0.0000E+00  0.2378E-02
    -15.389  0.0000E+00  0.2378E-02
    -15.288  0.0000E+00  0.2378E-02
    -15.188  0.0000E+00  0.2378E-02
    -15.087  0.0000E+00  0.2378E-02
    -14.987  0.0000E+00  0.2378E-02
    -14.886  0.0000E+00  0.2378E-02
    -14.786  0.0000E+00  0.2378E-02
    -14.685  0.0000E+00  0.2378E-02
    -14.585  0.0000E+00  0.2378E-02
    -14.484  0.0000E+00  0.2378E-02
    -14.383  0.0000E+00  0.2378E-02
    -14.283  0.0000E+00  0.2378E-02
    -14.182  0.0000E+00  0.2378E-02
    -14.082  0.0000E+00  0.2378E-02
    -13.981  0.0000E+00  0.2378E-02
    -13.881  0.0000E+00  0.2378E-02
    -13.780  0.0000E+00  0.2378E-02
    -13.680  0.0000E+00  0.2378E-02
    -13.579  0.0000E+00  0.2378E-02
    -13.478  0.0000E+00  0.2378E-02
    -13.378  0.0000E+00  0.2378E-02
    -13.277  0.0000E+00  0.2378E-02
    -13.177  0.0000E+00  0.2378E-02
    -13.076  0.0000E+00  0.2378E-02
    -12.976  0.0000E+00  0.2378E-02
    -12.875  0.0000E+00  0.2378E-02
    -12.775  0.0000E+00  0.2378E-02
    -12.674  0.0000E+00  0.2378E-02
    -12.573  0.0000E+00  0.2378E-02
    -12.473  0.0000E+00  0.2378E-02
    -12.372  0.0000E+00  0.2378E-02
    -12.272  0.0000E+00  0.2378E-02
    -12.171 -0.3864E-29  0.2378E-02
    -12.071 -0.1321E-22  0.2378E-02
    -11.970 -0.5857E-17  0.2378E-02
    -11.870 -0.3211E-12  0.2378E-02
    -11.769 -0.2276E-08  0.2378E-02
    -11.668 -0.1948E-05  0.2378E-02
    -11.568 -0.1772E-03  0.2360E-02
    -11.467 -0.4412E-03  0.2316E-02
    -11.367  0.1234E-01  0.3556E-02
    -11.266  0.1253E-01  0.4816E-02
    -11.166 -0.4090E-03  0.4775E-02
    -11.065 -0.1835E-03  0.4756E-02
    -10.965 -0.2071E-05  0.4756E-02
    -10.864 -0.2476E-08  0.4756E-02
    -10.763 -0.3573E-12  0.4756E-02
    -10.663 -0.8541E-12  0.4756E-02
    -10.562 -0.2646E-08  0.4756E-02
    -10.462 -0.9606E-06  0.4756E-02
    -10.361 -0.3292E-04  0.4753E-02
    -10.261  0.5774E-04  0.4759E-02
    -10.160  0.1014E-02  0.4861E-02
    -10.060  0.5435E-02  0.5407E-02
     -9.959  0.3910E-02  0.5800E-02
     -9.858  0.9880E-03  0.5900E-02
     -9.758  0.6931E-02  0.6597E-02
     -9.657  0.7327E-02  0.7333E-02
     -9.557  0.2724E-02  0.7607E-02
     -9.456 -0.7873E-03  0.7528E-02
     -9.356  0.4089E-02  0.7939E-02
     -9.255  0.1253E-01  0.9200E-02
     -9.154  0.2739E-02  0.9475E-02
     -9.054  0.6096E-02  0.1009E-01
     -8.953  0.1880E-02  0.1028E-01
     -8.853  0.3709E-03  0.1031E-01
     -8.752  0.1028E-01  0.1135E-01
     -8.652  0.1965E-01  0.1332E-01
     -8.551  0.8270E-02  0.1415E-01
     -8.451  0.9007E-02  0.1506E-01
     -8.350  0.1368E-01  0.1644E-01
     -8.249  0.1944E-02  0.1663E-01
     -8.149  0.1018E-02  0.1673E-01
     -8.048  0.2659E-01  0.1941E-01
     -7.948  0.2706E-01  0.2213E-01
     -7.847  0.1658E-01  0.2380E-01
     -7.747  0.2090E-01  0.2590E-01
     -7.646  0.7911E-02  0.2669E-01
     -7.546  0.2988E-01  0.2970E-01
     -7.445  0.6108E-01  0.3584E-01
     -7.344  0.5905E-01  0.4178E-01
     -7.244  0.3969E-01  0.4577E-01
     -7.143  0.6630E-01  0.5244E-01
     -7.043  0.7992E-01  0.6047E-01
     -6.942  0.6216E-01  0.6672E-01
     -6.842  0.6676E-01  0.7343E-01
     -6.741  0.7754E-01  0.8123E-01
     -6.641  0.8441E-01  0.8972E-01
     -6.540  0.1159E+00  0.1014E+00
     -6.439  0.1270E+00  0.1141E+00
     -6.339  0.1176E+00  0.1260E+00
     -6.238  0.1186E+00  0.1379E+00
     -6.138  0.1070E+00  0.1486E+00
     -6.037  0.8619E-01  0.1573E+00
     -5.937  0.8098E-01  0.1655E+00
     -5.836  0.6887E-01  0.1724E+00
     -5.736  0.3328E-01  0.1757E+00
     -5.635  0.9011E-01  0.1848E+00
     -5.534  0.1224E+00  0.1971E+00
     -5.434  0.9570E-01  0.2067E+00
     -5.333  0.8828E-01  0.2156E+00
     -5.233  0.9962E-01  0.2256E+00
     -5.132  0.1144E+00  0.2371E+00
     -5.032  0.9571E-01  0.2467E+00
     -4.931  0.9235E-01  0.2560E+00
     -4.831  0.6896E-01  0.2630E+00
     -4.730  0.9121E-01  0.2721E+00
     -4.629  0.1143E+00  0.2836E+00
     -4.529  0.1304E+00  0.2967E+00
     -4.428  0.1564E+00  0.3125E+00
     -4.328  0.1490E+00  0.3274E+00
     -4.227  0.1122E+00  0.3387E+00
     -4.127  0.1555E+00  0.3544E+00
     -4.026  0.1845E+00  0.3729E+00
     -3.926  0.1768E+00  0.3907E+00
     -3.825  0.1697E+00  0.4078E+00
     -3.724  0.1725E+00  0.4251E+00
     -3.624  0.1768E+00  0.4429E+00
     -3.523  0.1447E+00  0.4574E+00
     -3.423  0.8775E-01  0.4663E+00
     -3.322  0.9331E-01  0.4756E+00
     -3.222  0.8780E-01  0.4845E+00
     -3.121  0.7691E-01  0.4922E+00
     -3.021  0.1179E+00  0.5041E+00
     -2.920  0.1799E+00  0.5222E+00
     -2.819  0.1501E+00  0.5373E+00
     -2.719  0.9809E-01  0.5471E+00
     -2.618  0.9470E-01  0.5566E+00
     -2.518  0.8898E-01  0.5656E+00
     -2.417  0.1046E+00  0.5761E+00
     -2.317  0.1046E+00  0.5866E+00
     -2.216  0.1230E+00  0.5990E+00
     -2.116  0.1243E+00  0.6115E+00
     -2.015  0.1685E+00  0.6284E+00
     -1.914  0.1672E+00  0.6453E+00
     -1.814  0.1352E+00  0.6589E+00
     -1.713  0.1119E+00  0.6701E+00
     -1.613  0.6008E-01  0.6761E+00
     -1.512  0.1109E+00  0.6873E+00
     -1.412  0.1387E+00  0.7013E+00
     -1.311  0.1369E+00  0.7150E+00
     -1.211  0.1022E+00  0.7253E+00
     -1.110  0.1349E+00  0.7389E+00
     -1.009  0.1718E+00  0.7561E+00
     -0.909  0.1978E+00  0.7760E+00
     -0.808  0.1492E+00  0.7910E+00
     -0.708  0.1213E+00  0.8032E+00
     -0.607  0.1155E+00  0.8148E+00
     -0.507  0.5605E-01  0.8205E+00
     -0.406  0.8534E-02  0.8213E+00
     -0.305  0.2884E-01  0.8242E+00
     -0.205  0.2955E-01  0.8272E+00
     -0.104  0.1887E-01  0.8291E+00
     -0.004  0.2672E-01  0.8318E+00
      0.097  0.3363E-01  0.8352E+00
      0.197  0.2669E-01  0.8378E+00
      0.298  0.4261E-01  0.8421E+00
      0.398  0.3375E-01  0.8455E+00
      0.499  0.2494E-01  0.8480E+00
      0.600  0.1790E-01  0.8498E+00
      0.700  0.7116E-02  0.8505E+00
      0.801  0.3476E-02  0.8509E+00
      0.901  0.1624E-01  0.8525E+00
      1.002  0.2790E-01  0.8553E+00
      1.102  0.3348E-01  0.8587E+00
      1.203  0.2806E-01  0.8615E+00
      1.303  0.3124E-01  0.8647E+00
      1.404  0.3977E-01  0.8687E+00
      1.505  0.2910E-01  0.8716E+00
      1.605  0.2998E-01  0.8746E+00
      1.706  0.1828E-01  0.8764E+00
      1.806  0.1729E-01  0.8782E+00
      1.907  0.1985E-01  0.8802E+00
      2.007  0.2088E-01  0.8823E+00
      2.108  0.3161E-01  0.8855E+00
      2.208  0.2275E-01  0.8877E+00
      2.309  0.1825E-01  0.8896E+00
      2.410  0.3291E-01  0.8929E+00
      2.510  0.2533E-01  0.8954E+00
      2.611  0.1636E-01  0.8971E+00
      2.711  0.2079E-01  0.8992E+00
      2.812  0.2911E-01  0.9021E+00
      2.912  0.3026E-01  0.9051E+00
      3.013  0.3433E-01  0.9086E+00
      3.113  0.1800E-01  0.9104E+00
      3.214  0.9528E-02  0.9114E+00
      3.315  0.2102E-01  0.9135E+00
      3.415  0.4522E-01  0.9180E+00
      3.516  0.2084E-01  0.9201E+00
      3.616  0.1423E-01  0.9216E+00
      3.717  0.1607E-01  0.9232E+00
      3.817  0.1094E-01  0.9243E+00
      3.918  0.2165E-02  0.9245E+00
      4.018  0.1567E-01  0.9261E+00
      4.119  0.1999E-01  0.9281E+00
      4.220  0.2171E-01  0.9303E+00
      4.320  0.1095E-01  0.9314E+00
      4.421  0.3291E-02  0.9317E+00
      4.521  0.5277E-02  0.9322E+00
      4.622  0.1858E-03  0.9322E+00
      4.722 -0.1137E-03  0.9322E+00
      4.823 -0.2378E-05  0.9322E+00
      4.923 -0.5334E-08  0.9322E+00
      5.024 -0.1499E-11  0.9322E+00
      5.125 -0.5383E-16  0.9322E+00
      5.225  0.0000E+00  0.9322E+00
      5.326  0.0000E+00  0.9322E+00
      5.426  0.0000E+00  0.9322E+00
      5.527  0.0000E+00  0.9322E+00
      5.627  0.0000E+00  0.9322E+00
      5.728  0.0000E+00  0.9322E+00
      5.828  0.0000E+00  0.9322E+00
