 vasp.5.4.4.18Apr17-6-g9f103f2a35 (build May 23 2022 10:35:18) complex          
  
 executed on           IFC18_impi date 2023.06.20  15:33:22
 running on   64 total cores
 distrk:  each k-point on   64 cores,    1 groups
 distr:  one band on NCORES_PER_BAND=  16 cores,    4 groups


--------------------------------------------------------------------------------------------------------


 INCAR:
 POTCAR:    PAW_PBE Pt 04Feb2005                  
 POTCAR:    PAW_PBE O 08Apr2002                   
 POTCAR:    PAW_PBE C 08Apr2002                   
 POTCAR:    PAW_PBE H 15Jun2001                   
 POTCAR:    PAW_PBE Pt 04Feb2005                  
   VRHFIN =Pt: s1d9                                                             
   LEXCH  = PE                                                                  
   EATOM  =   729.1176 eV,   53.5886 Ry                                         
                                                                                
   TITEL  = PAW_PBE Pt 04Feb2005                                                
   LULTRA =        F    use ultrasoft PP ?                                      
   IUNSCR =        1    unscreen: 0-lin 1-nonlin 2-no                           
   RPACOR =    2.330    partial core radius                                     
   POMASS =  195.080; ZVAL   =   10.000    mass and valenz                      
   RCORE  =    2.600    outmost cutoff radius                                   
   RWIGS  =    2.750; RWIGS  =    1.455    wigner-seitz radius (au A)           
   ENMAX  =  230.283; ENMIN  =  172.712 eV                                      
   ICORE  =        3    local potential                                         
   LCOR   =        T    correct aug charges                                     
   LPAW   =        T    paw PP                                                  
   EAUG   =  358.966                                                            
   DEXC   =    0.000                                                            
   RMAX   =    2.658    core radius for proj-oper                               
   RAUG   =    1.300    factor for augmentation sphere                          
   RDEP   =    2.761    radius for radial grids                                 
   RDEPT  =    2.203    core radius for aug-charge                              
                                                                                
   Atomic configuration                                                         
   16 entries                                                                   
     n  l   j            E        occ.                                          
     1  0  0.50    -78401.1885   2.0000                                         
     2  0  0.50    -13770.7750   2.0000                                         
     2  1  1.50    -11931.0468   6.0000                                         
     3  0  0.50     -3234.7234   2.0000                                         
     3  1  1.50     -2699.2216   6.0000                                         
     3  2  2.50     -2119.5714  10.0000                                         
     4  0  0.50      -695.1528   2.0000                                         
     4  1  1.50      -519.6034   6.0000                                         
     4  2  2.50      -306.6786  10.0000                                         
     4  3  3.50       -70.1041  14.0000                                         
     5  0  0.50      -101.7747   2.0000                                         
     5  1  1.50       -55.9873   6.0000                                         
     5  2  2.50        -6.1423   9.0000                                         
     6  0  0.50        -5.6573   1.0000                                         
     6  1  1.50        -6.8029   0.0000                                         
     5  3  2.50        -1.3606   0.0000                                         
   Description                                                                  
     l       E           TYP  RCUT    TYP  RCUT                                 
     2     -6.1423404     23  2.500                                             
     2     -7.5029230     23  2.500                                             
     0     -5.6573207     23  2.500                                             
     0      0.7416693     23  2.500                                             
     1     -2.7211652     23  2.600                                             
     1     20.4087390     23  2.600                                             
     3     -1.3605826     23  2.500                                             
  local pseudopotential read in
  partial core-charges read in
  partial kinetic energy density read in
  atomic valenz-charges read in
  non local Contribution for L=           2  read in
    real space projection operators read in
  non local Contribution for L=           2  read in
    real space projection operators read in
  non local Contribution for L=           0  read in
    real space projection operators read in
  non local Contribution for L=           0  read in
    real space projection operators read in
  non local Contribution for L=           1  read in
    real space projection operators read in
  non local Contribution for L=           1  read in
    real space projection operators read in
    PAW grid and wavefunctions read in
 
   number of l-projection  operators is LMAX  =           6
   number of lm-projection operators is LMMAX =          18
 
 POTCAR:    PAW_PBE O 08Apr2002                   
   VRHFIN =O: s2p4                                                              
   LEXCH  = PE                                                                  
   EATOM  =   432.3788 eV,   31.7789 Ry                                         
                                                                                
   TITEL  = PAW_PBE O 08Apr2002                                                 
   LULTRA =        F    use ultrasoft PP ?                                      
   IUNSCR =        1    unscreen: 0-lin 1-nonlin 2-no                           
   RPACOR =    1.200    partial core radius                                     
   POMASS =   16.000; ZVAL   =    6.000    mass and valenz                      
   RCORE  =    1.520    outmost cutoff radius                                   
   RWIGS  =    1.550; RWIGS  =    0.820    wigner-seitz radius (au A)           
   ENMAX  =  400.000; ENMIN  =  300.000 eV                                      
   ICORE  =        2    local potential                                         
   LCOR   =        T    correct aug charges                                     
   LPAW   =        T    paw PP                                                  
   EAUG   =  605.392                                                            
   DEXC   =    0.000                                                            
   RMAX   =    1.553    core radius for proj-oper                               
   RAUG   =    1.300    factor for augmentation sphere                          
   RDEP   =    1.550    radius for radial grids                                 
   RDEPT  =    1.329    core radius for aug-charge                              
                                                                                
   Atomic configuration                                                         
    4 entries                                                                   
     n  l   j            E        occ.                                          
     1  0  0.50      -514.6923   2.0000                                         
     2  0  0.50       -23.9615   2.0000                                         
     2  1  0.50        -9.0305   4.0000                                         
     3  2  1.50        -9.5241   0.0000                                         
   Description                                                                  
     l       E           TYP  RCUT    TYP  RCUT                                 
     0    -23.9615318     23  1.200                                             
     0     -9.5240782     23  1.200                                             
     1     -9.0304911     23  1.520                                             
     1      8.1634956     23  1.520                                             
     2     -9.5240782      7  1.500                                             
  local pseudopotential read in
  partial core-charges read in
  partial kinetic energy density read in
  kinetic energy density of atom read in
  atomic valenz-charges read in
  non local Contribution for L=           0  read in
    real space projection operators read in
  non local Contribution for L=           0  read in
    real space projection operators read in
  non local Contribution for L=           1  read in
    real space projection operators read in
  non local Contribution for L=           1  read in
    real space projection operators read in
    PAW grid and wavefunctions read in
 
   number of l-projection  operators is LMAX  =           4
   number of lm-projection operators is LMMAX =           8
 
 POTCAR:    PAW_PBE C 08Apr2002                   
   VRHFIN =C: s2p2                                                              
   LEXCH  = PE                                                                  
   EATOM  =   147.1560 eV,   10.8157 Ry                                         
                                                                                
   TITEL  = PAW_PBE C 08Apr2002                                                 
   LULTRA =        F    use ultrasoft PP ?                                      
   IUNSCR =        1    unscreen: 0-lin 1-nonlin 2-no                           
   RPACOR =    1.200    partial core radius                                     
   POMASS =   12.011; ZVAL   =    4.000    mass and valenz                      
   RCORE  =    1.500    outmost cutoff radius                                   
   RWIGS  =    1.630; RWIGS  =    0.863    wigner-seitz radius (au A)           
   ENMAX  =  400.000; ENMIN  =  300.000 eV                                      
   ICORE  =        2    local potential                                         
   LCOR   =        T    correct aug charges                                     
   LPAW   =        T    paw PP                                                  
   EAUG   =  644.873                                                            
   DEXC   =    0.000                                                            
   RMAX   =    1.529    core radius for proj-oper                               
   RAUG   =    1.300    factor for augmentation sphere                          
   RDEP   =    1.501    radius for radial grids                                 
   RDEPT  =    1.300    core radius for aug-charge                              
                                                                                
   Atomic configuration                                                         
    4 entries                                                                   
     n  l   j            E        occ.                                          
     1  0  0.50      -273.3789   2.0000                                         
     2  0  0.50       -13.7508   2.0000                                         
     2  1  0.50        -5.2854   2.0000                                         
     3  2  1.50        -5.4423   0.0000                                         
   Description                                                                  
     l       E           TYP  RCUT    TYP  RCUT                                 
     0    -13.7508458     23  1.200                                             
     0     -8.2022199     23  1.200                                             
     1     -5.2854383     23  1.500                                             
     1     34.0145650     23  1.500                                             
     2     -5.4423304      7  1.500                                             
  local pseudopotential read in
  partial core-charges read in
  partial kinetic energy density read in
  atomic valenz-charges read in
  non local Contribution for L=           0  read in
    real space projection operators read in
  non local Contribution for L=           0  read in
    real space projection operators read in
  non local Contribution for L=           1  read in
    real space projection operators read in
  non local Contribution for L=           1  read in
    real space projection operators read in
    PAW grid and wavefunctions read in
 
   number of l-projection  operators is LMAX  =           4
   number of lm-projection operators is LMMAX =           8
 
 POTCAR:    PAW_PBE H 15Jun2001                   
   VRHFIN =H: ultrasoft test                                                    
   LEXCH  = PE                                                                  
   EATOM  =    12.4884 eV,    0.9179 Ry                                         
                                                                                
   TITEL  = PAW_PBE H 15Jun2001                                                 
   LULTRA =        F    use ultrasoft PP ?                                      
   IUNSCR =        0    unscreen: 0-lin 1-nonlin 2-no                           
   RPACOR =    0.000    partial core radius                                     
   POMASS =    1.000; ZVAL   =    1.000    mass and valenz                      
   RCORE  =    1.100    outmost cutoff radius                                   
   RWIGS  =    0.700; RWIGS  =    0.370    wigner-seitz radius (au A)           
   ENMAX  =  250.000; ENMIN  =  200.000 eV                                      
   RCLOC  =    0.701    cutoff for local pot                                    
   LCOR   =        T    correct aug charges                                     
   LPAW   =        T    paw PP                                                  
   EAUG   =  400.000                                                            
   RMAX   =    1.123    core radius for proj-oper                               
   RAUG   =    1.200    factor for augmentation sphere                          
   RDEP   =    1.112    radius for radial grids                                 
   RDEPT  =    0.926    core radius for aug-charge                              
                                                                                
   Atomic configuration                                                         
    2 entries                                                                   
     n  l   j            E        occ.                                          
     1  0  0.50        -6.4927   1.0000                                         
     2  1  0.50        -3.4015   0.0000                                         
   Description                                                                  
     l       E           TYP  RCUT    TYP  RCUT                                 
     0     -6.4927494     23  1.100                                             
     0      6.8029130     23  1.100                                             
     1     -4.0817478     23  1.100                                             
  local pseudopotential read in
  atomic valenz-charges read in
  non local Contribution for L=           0  read in
    real space projection operators read in
  non local Contribution for L=           0  read in
    real space projection operators read in
  non local Contribution for L=           1  read in
    real space projection operators read in
    PAW grid and wavefunctions read in
 
   number of l-projection  operators is LMAX  =           3
   number of lm-projection operators is LMMAX =           5
 
 Optimization of the real space projectors (new method)

 maximal supplied QI-value         = 14.36
 optimisation between [QCUT,QGAM] = [ 10.20, 20.39] = [ 29.12,116.47] Ry 
 Optimized for a Real-space Cutoff    1.42 Angstroem

   l    n(q)    QCUT    max X(q) W(low)/X(q) W(high)/X(q)  e(spline) 
   2      8    10.197    66.195    0.74E-03    0.54E-03    0.15E-06
   2      8    10.197    64.643    0.76E-03    0.55E-03    0.15E-06
   0      9    10.197    95.520    0.30E-03    0.12E-03    0.68E-07
   0      9    10.197    63.403    0.29E-03    0.12E-03    0.65E-07
   1      8    10.197    19.961    0.11E-02    0.12E-02    0.15E-06
   1      8    10.197    13.289    0.93E-03    0.10E-02    0.13E-06
 Optimization of the real space projectors (new method)

 maximal supplied QI-value         = 24.76
 optimisation between [QCUT,QGAM] = [ 10.15, 20.30] = [ 28.85,115.39] Ry 
 Optimized for a Real-space Cutoff    1.19 Angstroem

   l    n(q)    QCUT    max X(q) W(low)/X(q) W(high)/X(q)  e(spline) 
   0      7    10.150    20.381    0.86E-03    0.53E-03    0.15E-06
   0      7    10.150    15.268    0.92E-03    0.58E-03    0.15E-06
   1      7    10.150     5.964    0.13E-02    0.15E-02    0.11E-06
   1      7    10.150     5.382    0.10E-02    0.13E-02    0.10E-06
 Optimization of the real space projectors (new method)

 maximal supplied QI-value         = 25.13
 optimisation between [QCUT,QGAM] = [ 10.05, 20.36] = [ 28.30,116.06] Ry 
 Optimized for a Real-space Cutoff    1.12 Angstroem

   l    n(q)    QCUT    max X(q) W(low)/X(q) W(high)/X(q)  e(spline) 
   0      7    10.053   115.676    0.98E-03    0.17E-02    0.83E-07
   0      7    10.053    87.132    0.97E-03    0.17E-02    0.82E-07
   1      6    10.053     4.429    0.15E-02    0.82E-03    0.11E-06
   1      6    10.053     2.733    0.11E-02    0.55E-03    0.12E-06
 Optimization of the real space projectors (new method)

 maximal supplied QI-value         = 34.20
 optimisation between [QCUT,QGAM] = [  9.92, 20.18] = [ 27.55,114.04] Ry 
 Optimized for a Real-space Cutoff    1.06 Angstroem

   l    n(q)    QCUT    max X(q) W(low)/X(q) W(high)/X(q)  e(spline) 
   0      6     9.919    19.460    0.17E-02    0.71E-03    0.15E-06
   0      6     9.919    12.209    0.17E-02    0.71E-03    0.14E-06
   1      6     9.919     4.655    0.35E-03    0.20E-02    0.14E-06
  PAW_PBE Pt 04Feb2005                  :
 energy of atom  1       EATOM= -729.1176
 kinetic energy error for atom=    0.0056 (will be added to EATOM!!)
  PAW_PBE O 08Apr2002                   :
 energy of atom  2       EATOM= -432.3788
 kinetic energy error for atom=    0.1156 (will be added to EATOM!!)
  PAW_PBE C 08Apr2002                   :
 energy of atom  3       EATOM= -147.1560
 kinetic energy error for atom=    0.0288 (will be added to EATOM!!)
  PAW_PBE H 15Jun2001                   :
 energy of atom  4       EATOM=  -12.4884
 kinetic energy error for atom=    0.0098 (will be added to EATOM!!)
 
 
 POSCAR: Pt  O  C  H                             
  positions in cartesian coordinates
  No initial velocities read in
 exchange correlation table for  LEXCH =        8
   RHO(1)=    0.500       N(1)  =     2000
   RHO(2)=  100.500       N(2)  =     4000

 VTST: version 3.2, (02/03/18)

 CHAIN: initializing optimizer
 
 OPT: Using VASP Dynamics algorithm
 CHAIN: Read ICHAIN            0
 
 POSCAR: Pt  O  C  H                             
  positions in cartesian coordinates
  No initial velocities read in
 


--------------------------------------------------------------------------------------------------------


 ion  position               nearest neighbor table
   1  0.083  0.333  0.391-   7 2.80  38 2.80   8 2.80   2 2.80   3 2.80  18 2.80  35 2.80   4 2.80
                            52 2.80
   2  0.083  0.083  0.391-  24 2.80  37 2.80   7 2.80  17 2.80  19 2.80   4 2.80  35 2.80  36 2.80
                             1 2.80
   3  0.333  0.333  0.391-   5 2.80   8 2.80   6 2.80   4 2.80   1 2.80  18 2.80  34 2.80  20 2.80
                            33 2.80
   4  0.333  0.083  0.391-   7 2.80  22 2.80   5 2.80  19 2.80  49 2.80   3 2.80   1 2.80  34 2.80
                             2 2.80
   5  0.417  0.167  0.464-  11 2.77  10 2.77   3 2.80  34 2.80   4 2.80   6 2.80   7 2.80  22 2.80
                             8 2.80  39 2.80  56 2.80  12 2.85
   6  0.417  0.417  0.464-  25 2.79  20 2.80  33 2.80   3 2.80  21 2.80  23 2.80   8 2.80   5 2.80
                            39 2.80  40 2.80  12 2.81  27 2.83
   7  0.167  0.167  0.464-   9 2.78  44 2.78  10 2.79   4 2.80   1 2.80   2 2.80   8 2.80  22 2.80
                            24 2.80  37 2.80   5 2.80  38 2.80
   8  0.167  0.417  0.464-  10 2.77  59 2.79  25 2.79   3 2.80  18 2.80   1 2.80   6 2.80  23 2.80
                             7 2.80   5 2.80  53 2.80  38 2.80
   9  0.250  0.001  0.536-   7 2.78  22 2.78  24 2.79  31 2.80  44 2.81  26 2.81  28 2.81  10 2.81
                            43 2.81  11 2.81  14 2.82  16 2.82
  10  0.251  0.251  0.535-   8 2.77   5 2.77   7 2.79  11 2.79  25 2.80  59 2.81  16 2.81   9 2.81
                            15 2.82  44 2.82  13 2.82  12 2.82
  11  0.500  0.002  0.536-   5 2.77  56 2.78  22 2.79  10 2.79  41 2.80  58 2.81  61 2.81   9 2.81
                            16 2.81  46 2.82  28 2.82  12 2.82
  12  0.501  0.253  0.537-  42 2.75  27 2.75  46 2.78  15 2.78  25 2.80  41 2.80   6 2.81  39 2.82
                            10 2.82  11 2.82   5 2.85  45 3.02
  13  0.083  0.335  0.609-  47 2.79  15 2.79  14 2.80  16 2.80  59 2.80  30 2.81  64 2.81  10 2.82
                            44 2.83
  14  0.083  0.086  0.609-  47 2.79  48 2.80  13 2.80  29 2.80  31 2.80  44 2.81  16 2.81   9 2.82
                            43 2.82
  15  0.332  0.336  0.609-  12 2.78  13 2.79  16 2.79  30 2.80  25 2.80  46 2.81  10 2.82  32 2.82
                            45 2.83
  16  0.333  0.086  0.609-  15 2.79  61 2.80  46 2.80  13 2.80  31 2.80  10 2.81  14 2.81  11 2.81
                             9 2.82
  17  0.083  0.833  0.391-  54 2.80  23 2.80  24 2.80   2 2.80  36 2.80  51 2.80  19 2.80  20 2.80
                            18 2.80
  18  0.083  0.583  0.391-   8 2.80  53 2.80  23 2.80   3 2.80  52 2.80   1 2.80  51 2.80  17 2.80
                            20 2.80
  19  0.333  0.833  0.391-  24 2.80  21 2.80  22 2.80   4 2.80   2 2.80  17 2.80  49 2.80  20 2.80
                            50 2.80
  20  0.333  0.583  0.391-   6 2.80  23 2.80  21 2.80  33 2.80  50 2.80  19 2.80   3 2.80  18 2.80
                            17 2.80
  21  0.417  0.667  0.464-  26 2.78  28 2.78  19 2.80  50 2.80  20 2.80  55 2.80   6 2.80  22 2.80
                            40 2.80  23 2.80  24 2.80  27 2.84
  22  0.417  0.917  0.464-  28 2.78   9 2.78  11 2.79   4 2.80  49 2.80  19 2.80  55 2.80  24 2.80
                             7 2.80   5 2.80  21 2.80  56 2.80
  23  0.167  0.667  0.464-  25 2.78  26 2.78  60 2.79  20 2.80  17 2.80  18 2.80  24 2.80   8 2.80
                             6 2.80  54 2.80  21 2.80  53 2.80
  24  0.167  0.917  0.464-  26 2.78   9 2.79  43 2.79   2 2.80  19 2.80  17 2.80  22 2.80  23 2.80
                             7 2.80  37 2.80  21 2.80  54 2.80
  25  0.250  0.501  0.536-  23 2.78   6 2.79   8 2.79  10 2.80  26 2.80  12 2.80  59 2.80  15 2.80
                            60 2.81  27 2.81  30 2.81  32 2.82
  26  0.250  0.750  0.535-  21 2.78  24 2.78  23 2.78  32 2.80  28 2.80  25 2.80  60 2.81   9 2.81
                            43 2.82  27 2.82  29 2.82  31 2.83
  27  0.501  0.498  0.537-  12 2.75  42 2.75  32 2.78  62 2.80  57 2.80  25 2.81  28 2.82  26 2.82
                            40 2.82   6 2.83  21 2.84  45 2.99
  28  0.500  0.750  0.535-  22 2.78  21 2.78  55 2.78  26 2.80  57 2.80  62 2.80  58 2.81   9 2.81
                            27 2.82  31 2.82  11 2.82  61 2.83
  29  0.083  0.836  0.609-  32 2.78  48 2.80  14 2.80  31 2.80  63 2.81  43 2.81  30 2.81  60 2.82
                            26 2.82
  30  0.083  0.586  0.609-  64 2.80  32 2.80  15 2.80  60 2.80  63 2.80  13 2.81  29 2.81  25 2.81
                            59 2.82
  31  0.333  0.836  0.609-  62 2.80  32 2.80  29 2.80  61 2.80   9 2.80  16 2.80  14 2.80  28 2.82
                            26 2.83
  32  0.331  0.588  0.609-  29 2.78  27 2.78  26 2.80  30 2.80  31 2.80  25 2.82  15 2.82  45 2.82
                            62 2.82
  33  0.583  0.333  0.391-  39 2.80   6 2.80  40 2.80  35 2.80  36 2.80  20 2.80  50 2.80  34 2.80
                             3 2.80
  34  0.583  0.083  0.391-   5 2.80  56 2.80  39 2.80  49 2.80  51 2.80   3 2.80  36 2.80   4 2.80
                            33 2.80
  35  0.833  0.333  0.391-  37 2.80  40 2.80  38 2.80  33 2.80  50 2.80   1 2.80  36 2.80   2 2.80
                            52 2.80
  36  0.833  0.083  0.391-  39 2.80  54 2.80  37 2.80  51 2.80  17 2.80  33 2.80  34 2.80  35 2.80
                             2 2.80
  37  0.917  0.167  0.464-  43 2.77  44 2.78   2 2.80  35 2.80  36 2.80  38 2.80  39 2.80  40 2.80
                            24 2.80   7 2.80  54 2.80  42 2.85
  38  0.917  0.417  0.464-  44 2.77  59 2.79  57 2.79  52 2.80   1 2.80  35 2.80  40 2.80  37 2.80
                            53 2.80  55 2.80   7 2.80   8 2.80
  39  0.667  0.167  0.464-  41 2.78  36 2.80  33 2.80  34 2.80   5 2.80  37 2.80  40 2.80   6 2.80
                            54 2.80  56 2.80  12 2.82  42 2.83
  40  0.667  0.417  0.464-  57 2.79  50 2.80  35 2.80  33 2.80  38 2.80  55 2.80  39 2.80  21 2.80
                            37 2.80   6 2.80  42 2.81  27 2.82
  41  0.750  0.001  0.536-  39 2.78  54 2.79  56 2.79  11 2.80  43 2.80  12 2.80  63 2.80  60 2.80
                            42 2.81  58 2.81  46 2.81  48 2.82
  42  0.747  0.253  0.537-  12 2.75  27 2.75  48 2.78  47 2.79  57 2.80  41 2.81  40 2.81  44 2.82
                            43 2.82  39 2.83  37 2.85  45 3.02
  43  0.999  0.002  0.536-  37 2.77  54 2.79  24 2.79  44 2.79  41 2.80  60 2.81  29 2.81   9 2.81
                            48 2.81  26 2.82  42 2.82  14 2.82
  44  0.999  0.251  0.535-  38 2.77  37 2.78   7 2.78  43 2.79  57 2.80   9 2.81  59 2.81  14 2.81
                            47 2.81  10 2.82  42 2.82  13 2.83
  45  0.582  0.338  0.619-  66 1.98  32 2.82  62 2.82  15 2.83  46 2.84  47 2.84  48 2.85  27 2.99
                            42 3.02  12 3.02
  46  0.583  0.085  0.609-  12 2.78  63 2.80  61 2.80  16 2.80  48 2.81  15 2.81  41 2.81  11 2.82
                            45 2.84
  47  0.835  0.336  0.609-  13 2.79  42 2.79  14 2.79  64 2.80  57 2.80  44 2.81  48 2.81  62 2.82
                            45 2.84
  48  0.834  0.085  0.609-  42 2.78  29 2.80  14 2.80  63 2.80  46 2.81  43 2.81  47 2.81  41 2.82
                            45 2.85
  49  0.583  0.833  0.391-  22 2.80  55 2.80  56 2.80  34 2.80   4 2.80  19 2.80  51 2.80  50 2.80
                            52 2.80
  50  0.583  0.583  0.391-  40 2.80  21 2.80  55 2.80  52 2.80  35 2.80  20 2.80  33 2.80  49 2.80
                            19 2.80
  51  0.833  0.833  0.391-  56 2.80  53 2.80  54 2.80  36 2.80  34 2.80  49 2.80  17 2.80  18 2.80
                            52 2.80
  52  0.833  0.583  0.391-  38 2.80  55 2.80  53 2.80  50 2.80  18 2.80  35 2.80   1 2.80  49 2.80
                            51 2.80
  53  0.917  0.667  0.464-  59 2.78  58 2.79  60 2.79  51 2.80  18 2.80  52 2.80  56 2.80  38 2.80
                            55 2.80   8 2.80  54 2.80  23 2.80
  54  0.917  0.917  0.464-  60 2.78  43 2.79  41 2.79  36 2.80  17 2.80  51 2.80  24 2.80  23 2.80
                            37 2.80  56 2.80  39 2.80  53 2.80
  55  0.667  0.667  0.464-  28 2.78  57 2.78  58 2.79  49 2.80  52 2.80  50 2.80  21 2.80  40 2.80
                            22 2.80  38 2.80  53 2.80  56 2.80
  56  0.667  0.917  0.464-  58 2.78  11 2.78  41 2.79  51 2.80  34 2.80  49 2.80  53 2.80  39 2.80
                            22 2.80  54 2.80   5 2.80  55 2.80
  57  0.750  0.501  0.536-  55 2.78  38 2.79  40 2.79  28 2.80  42 2.80  47 2.80  59 2.80  27 2.80
                            44 2.80  58 2.80  62 2.82  64 2.82
  58  0.750  0.751  0.536-  56 2.78  53 2.79  55 2.79  64 2.80  57 2.80  28 2.81  60 2.81  11 2.81
                            41 2.81  59 2.81  61 2.81  63 2.82
  59  1.000  0.500  0.536-  53 2.78   8 2.79  38 2.79  57 2.80  13 2.80  25 2.80  44 2.81  10 2.81
                            58 2.81  60 2.81  64 2.81  30 2.82
  60  1.000  0.751  0.536-  54 2.78  23 2.79  53 2.79  30 2.80  41 2.80  43 2.81  58 2.81  26 2.81
                            25 2.81  59 2.81  63 2.81  29 2.82
  61  0.583  0.836  0.609-  62 2.79  46 2.80  16 2.80  31 2.80  63 2.81  64 2.81  11 2.81  58 2.81
                            28 2.83
  62  0.583  0.587  0.609-  61 2.79  31 2.80  27 2.80  64 2.80  28 2.80  57 2.82  47 2.82  45 2.82
                            32 2.82
  63  0.833  0.836  0.609-  46 2.80  48 2.80  64 2.80  30 2.80  41 2.80  61 2.81  29 2.81  60 2.81
                            58 2.82
  64  0.833  0.586  0.609-  30 2.80  62 2.80  47 2.80  63 2.80  58 2.80  61 2.81  13 2.81  59 2.81
                            57 2.82
  65  0.479  0.384  0.704-  66 1.20
  66  0.578  0.350  0.682-  67 1.12  65 1.20  45 1.98
  67  0.682  0.320  0.694-  66 1.12
 

IMPORTANT INFORMATION: All symmetrisations will be switched off!
NOSYMM: (Re-)initialisation of all symmetry stuff for point group C_1.

 
 
 KPOINTS: kpoints                                 

Automatic generation of k-mesh.
Space group operators:
 irot       det(A)        alpha          n_x          n_y          n_z        tau_x        tau_y        tau_z
    1     1.000000     0.000000     1.000000     0.000000     0.000000     0.000000     0.000000     0.000000
 
 Subroutine IBZKPT returns following result:
 ===========================================
 
 Found     10 irreducible k-points:
 
 Following reciprocal coordinates:
            Coordinates               Weight
  0.000000  0.000000  0.000000      1.000000
  0.250000  0.000000  0.000000      2.000000
  0.500000  0.000000  0.000000      1.000000
  0.000000  0.250000  0.000000      2.000000
  0.250000  0.250000  0.000000      2.000000
  0.500000  0.250000  0.000000      2.000000
 -0.250000  0.250000  0.000000      2.000000
  0.000000  0.500000  0.000000      1.000000
  0.250000  0.500000  0.000000      2.000000
  0.500000  0.500000  0.000000      1.000000
 
 Following cartesian coordinates:
            Coordinates               Weight
  0.000000  0.000000  0.000000      1.000000
  0.022293 -0.012871  0.000000      2.000000
  0.044586 -0.025741  0.000000      1.000000
  0.000000  0.025741  0.000000      2.000000
  0.022293  0.012871  0.000000      2.000000
  0.044586  0.000000  0.000000      2.000000
 -0.022293  0.038612  0.000000      2.000000
  0.000000  0.051483  0.000000      1.000000
  0.022293  0.038612  0.000000      2.000000
  0.044586  0.025741  0.000000      1.000000
 
 
 Subroutine IBZKPT_HF returns following result:
 ==============================================
 
 Found     16 k-points in 1st BZ
 the following     16 k-points will be used (e.g. in the exchange kernel)
 Following reciprocal coordinates:   # in IRBZ
  0.000000  0.000000  0.000000    0.06250000   1 t-inv F
  0.250000  0.000000  0.000000    0.06250000   2 t-inv F
  0.500000  0.000000  0.000000    0.06250000   3 t-inv F
  0.000000  0.250000  0.000000    0.06250000   4 t-inv F
  0.250000  0.250000  0.000000    0.06250000   5 t-inv F
  0.500000  0.250000  0.000000    0.06250000   6 t-inv F
 -0.250000  0.250000  0.000000    0.06250000   7 t-inv F
  0.000000  0.500000  0.000000    0.06250000   8 t-inv F
  0.250000  0.500000  0.000000    0.06250000   9 t-inv F
  0.500000  0.500000  0.000000    0.06250000  10 t-inv F
 -0.250000 -0.000000  0.000000    0.06250000   2 t-inv T
  0.000000 -0.250000  0.000000    0.06250000   4 t-inv T
 -0.250000 -0.250000  0.000000    0.06250000   5 t-inv T
 -0.500000 -0.250000  0.000000    0.06250000   6 t-inv T
  0.250000 -0.250000  0.000000    0.06250000   7 t-inv T
 -0.250000 -0.500000  0.000000    0.06250000   9 t-inv T


--------------------------------------------------------------------------------------------------------




 Dimension of arrays:
   k-points           NKPTS =     10   k-points in BZ     NKDIM =     10   number of bands    NBANDS=    392
   number of dos      NEDOS =    301   number of ions     NIONS =     67
   non local maximal  LDIM  =      6   non local SUM 2l+1 LMDIM =     18
   total plane-waves  NPLWV = 501760
   max r-space proj   IRMAX =   1814   max aug-charges    IRDMAX=   5699
   dimension x,y,z NGX =    56 NGY =   56 NGZ =  160
   dimension x,y,z NGXF=    96 NGYF=   96 NGZF=  270
   support grid    NGXF=    96 NGYF=   96 NGZF=  270
   ions per type =              64   1   1   1
   NGX,Y,Z   is equivalent  to a cutoff of   8.30,  8.30,  8.46 a.u.
   NGXF,Y,Z  is equivalent  to a cutoff of  14.23, 14.23, 14.27 a.u.

 SYSTEM =  Pt                                      
 POSCAR =  Pt  O  C  H                             

 Startparameter for this run:
   NWRITE =      2    write-flag & timer
   PREC   = med       normal or accurate (medium, high low for compatibility)
   ISTART =      0    job   : 0-new  1-cont  2-samecut
   ICHARG =      2    charge: 1-file 2-atom 10-const
   ISPIN  =      1    spin polarized calculation?
   LNONCOLLINEAR =      F non collinear calculations
   LSORBIT =      F    spin-orbit coupling
   INIWAV =      1    electr: 0-lowe 1-rand  2-diag
   LASPH  =      F    aspherical Exc in radial PAW
   METAGGA=      F    non-selfconsistent MetaGGA calc.

 Electronic Relaxation 1
   ENCUT  =  400.0 eV  29.40 Ry    5.42 a.u.  18.29 18.29 51.28*2*pi/ulx,y,z
   ENINI  =  400.0     initial cutoff
   ENAUG  =  644.9 eV  augmentation charge cutoff
   NELM   =    100;   NELMIN=  2; NELMDL= -5     # of ELM steps 
   EDIFF  = 0.1E-04   stopping-criterion for ELM
   LREAL  =      T    real-space projection
   NLSPLINE    = F    spline interpolate recip. space projectors
   LCOMPAT=      F    compatible to vasp.4.4
   GGA_COMPAT  = T    GGA compatible to vasp.4.4-vasp.4.6
   LMAXPAW     = -100 max onsite density
   LMAXMIX     =    2 max onsite mixed and CHGCAR
   VOSKOWN=      0    Vosko Wilk Nusair interpolation
   ROPT   =   -0.00200  -0.00200  -0.00200  -0.00200
 Ionic relaxation
   EDIFFG = 0.1E-03   stopping-criterion for IOM
   NSW    =    841    number of steps for IOM
   NBLOCK =      1;   KBLOCK =    841    inner block; outer block 
   IBRION =      5    ionic relax: 0-MD 1-quasi-New 2-CG
   NFREE  =      2    steps in history (QN), initial steepest desc. (CG)
   ISIF   =      1    stress and relaxation
   IWAVPR =     11    prediction:  0-non 1-charg 2-wave 3-comb
   ISYM   =      0    0-nonsym 1-usesym 2-fastsym
   LCORR  =      T    Harris-Foulkes like correction to forces

   POTIM  = 0.0150    time-step for ionic-motion
   TEIN   =    0.0    initial temperature
   TEBEG  =    0.0;   TEEND  =   0.0 temperature during run
   SMASS  =  -3.00    Nose mass-parameter (am)
   estimated Nose-frequenzy (Omega)   =  0.10E-29 period in steps =****** mass=  -0.287E-26a.u.
   SCALEE = 1.0000    scale energy and forces
   NPACO  =    256;   APACO  = 16.0  distance and # of slots for P.C.
   PSTRESS=    0.0 pullay stress

  Mass of Ions in am
   POMASS = 195.08 16.00 12.01  1.00
  Ionic Valenz
   ZVAL   =  10.00  6.00  4.00  1.00
  Atomic Wigner-Seitz radii
   RWIGS  =  -1.00 -1.00 -1.00 -1.00
  virtual crystal weights 
   VCA    =   1.00  1.00  1.00  1.00
   NELECT =     651.0000    total number of electrons
   NUPDOWN=      -1.0000    fix difference up-down

 DOS related values:
   EMIN   =  10.00;   EMAX   =-10.00  energy-range for DOS
   EFERMI =   0.00
   ISMEAR =     1;   SIGMA  =   0.10  broadening in eV -4-tet -1-fermi 0-gaus

 Electronic relaxation 2 (details)
   IALGO  =     68    algorithm
   LDIAG  =      T    sub-space diagonalisation (order eigenvalues)
   LSUBROT=      F    optimize rotation matrix (better conditioning)
   TURBO    =      0    0=normal 1=particle mesh
   IRESTART =      0    0=no restart 2=restart with 2 vectors
   NREBOOT  =      0    no. of reboots
   NMIN     =      0    reboot dimension
   EREF     =   0.00    reference energy to select bands
   IMIX   =      4    mixing-type and parameters
     AMIX     =   0.40;   BMIX     =  1.00
     AMIX_MAG =   1.60;   BMIX_MAG =  1.00
     AMIN     =   0.10
     WC   =   100.;   INIMIX=   1;  MIXPRE=   1;  MAXMIX= -45

 Intra band minimization:
   WEIMIN = 0.0010     energy-eigenvalue tresh-hold
   EBREAK =  0.64E-08  absolut break condition
   DEPER  =   0.30     relativ break condition  

   TIME   =   0.40     timestep for ELM

  volume/ion in A,a.u.               =      51.12       344.96
  Fermi-wavevector in a.u.,A,eV,Ry     =   0.941285  1.778770 12.054989  0.886017
  Thomas-Fermi vector in A             =   2.068780
 
 Write flags
   LWAVE        =      F    write WAVECAR
   LDOWNSAMPLE  =      F    k-point downsampling of WAVECAR
   LCHARG       =      F    write CHGCAR
   LVTOT        =      F    write LOCPOT, total local potential
   LVHAR        =      F    write LOCPOT, Hartree potential only
   LELF         =      F    write electronic localiz. function (ELF)
   LORBIT       =      0    0 simple, 1 ext, 2 COOP (PROOUT), +10 PAW based schemes


 Dipole corrections
   LMONO  =      F    monopole corrections only (constant potential shift)
   LDIPOL =      F    correct potential (dipole corrections)
   IDIPOL =      0    1-x, 2-y, 3-z, 4-all directions 
   EPSILON=  1.0000000 bulk dielectric constant

 Exchange correlation treatment:
   GGA     =    --    GGA type
   LEXCH   =     8    internal setting for exchange type
   VOSKOWN=      0    Vosko Wilk Nusair interpolation
   LHFCALC =     F    Hartree Fock is set to
   LHFONE  =     F    Hartree Fock one center treatment
   AEXX    =    0.0000 exact exchange contribution

 Linear response parameters
   LEPSILON=     F    determine dielectric tensor
   LRPA    =     F    only Hartree local field effects (RPA)
   LNABLA  =     F    use nabla operator in PAW spheres
   LVEL    =     F    velocity operator in full k-point grid
   LINTERFAST=   F  fast interpolation
   KINTER  =     0    interpolate to denser k-point grid
   CSHIFT  =0.1000    complex shift for real part using Kramers Kronig
   OMEGAMAX=  -1.0    maximum frequency
   DEG_THRESHOLD= 0.2000000E-02 threshold for treating states as degnerate
   RTIME   =   -0.100 relaxation time in fs
  (WPLASMAI=    0.000 imaginary part of plasma frequency in eV, 0.658/RTIME)
   DFIELD  = 0.0000000 0.0000000 0.0000000 field for delta impulse in time
 
 Orbital magnetization related:
   ORBITALMAG=     F  switch on orbital magnetization
   LCHIMAG   =     F  perturbation theory with respect to B field
   DQ        =  0.001000  dq finite difference perturbation B field
   LLRAUG    =     F  two centre corrections for induced B field



--------------------------------------------------------------------------------------------------------


 finite differences
   using selective dynamics as specified on POSCAR
   WARNING: If single coordinates had been selected the selection of coordinates
            is made according to the corresponding   d i r e c t   coordinates!
            Don't support selection of single cartesian coordinates -- sorry ...
  !
 charge density and potential will be updated during run
 non-spin polarized calculation
 RMM-DIIS sequential band-by-band and
  variant of blocked Davidson during initial phase
 perform sub-space diagonalisation
    before iterative eigenvector-optimisation
 modified Broyden-mixing scheme, WC =      100.0
 initial mixing is a Kerker type mixing with AMIX =  0.4000 and BMIX =      1.0000
 Hartree-type preconditioning will be used
 using additional bands           66
 real space projection scheme for non local part
 use partial core corrections
 calculate Harris-corrections to forces 
   (improved forces if not selfconsistent)
 use gradient corrections 
 use of overlap-Matrix (Vanderbilt PP)
 Methfessel and Paxton  Order N= 1 SIGMA  =   0.10


--------------------------------------------------------------------------------------------------------


  energy-cutoff  :      400.00
  volume of cell :     3424.86
      direct lattice vectors                 reciprocal lattice vectors
    11.214400000  0.000000000  0.000000000     0.089171066 -0.051482939  0.000000000
     5.607200000  9.711955288  0.000000000     0.000000000  0.102965878  0.000000000
     0.000000000  0.000000000 31.445600000     0.000000000  0.000000000  0.031800951

  length of vectors
    11.214400000 11.214400000 31.445600000     0.102965878  0.102965878  0.031800951


 
 k-points in units of 2pi/SCALE and weight: kpoints                                 
   0.00000000  0.00000000  0.00000000       0.062
   0.02229277 -0.01287073  0.00000000       0.125
   0.04458553 -0.02574147  0.00000000       0.062
   0.00000000  0.02574147  0.00000000       0.125
   0.02229277  0.01287073  0.00000000       0.125
   0.04458553  0.00000000  0.00000000       0.125
  -0.02229277  0.03861220  0.00000000       0.125
   0.00000000  0.05148294  0.00000000       0.062
   0.02229277  0.03861220  0.00000000       0.125
   0.04458553  0.02574147  0.00000000       0.062
 
 k-points in reciprocal lattice and weights: kpoints                                 
   0.00000000  0.00000000  0.00000000       0.062
   0.25000000  0.00000000  0.00000000       0.125
   0.50000000  0.00000000  0.00000000       0.062
   0.00000000  0.25000000  0.00000000       0.125
   0.25000000  0.25000000  0.00000000       0.125
   0.50000000  0.25000000  0.00000000       0.125
  -0.25000000  0.25000000  0.00000000       0.125
   0.00000000  0.50000000  0.00000000       0.062
   0.25000000  0.50000000  0.00000000       0.125
   0.50000000  0.50000000  0.00000000       0.062
 
 position of ions in fractional coordinates (direct lattice) 
   0.08333000  0.33333000  0.39081000
   0.08333000  0.08333000  0.39081000
   0.33333000  0.33333000  0.39081000
   0.33333000  0.08333000  0.39081000
   0.41667000  0.16667000  0.46360000
   0.41667000  0.41667000  0.46360000
   0.16667000  0.16667000  0.46360000
   0.16667000  0.41667000  0.46360000
   0.24992021  0.00073788  0.53558213
   0.25071799  0.25078149  0.53541258
   0.49997823  0.00183639  0.53557957
   0.50146160  0.25292383  0.53739454
   0.08348913  0.33513523  0.60877191
   0.08284342  0.08597852  0.60876949
   0.33213481  0.33560058  0.60880712
   0.33343322  0.08579564  0.60873840
   0.08333000  0.83333000  0.39081000
   0.08333000  0.58333000  0.39081000
   0.33333000  0.83333000  0.39081000
   0.33333000  0.58333000  0.39081000
   0.41667000  0.66667000  0.46360000
   0.41667000  0.91667000  0.46360000
   0.16667000  0.66667000  0.46360000
   0.16667000  0.91667000  0.46360000
   0.24978862  0.50087083  0.53567888
   0.25032204  0.75029350  0.53536412
   0.50132975  0.49830243  0.53743516
   0.49993351  0.75009970  0.53548555
   0.08322605  0.83608822  0.60878273
   0.08271076  0.58579598  0.60876551
   0.33297619  0.83600911  0.60874760
   0.33120321  0.58751032  0.60869195
   0.58333000  0.33333000  0.39081000
   0.58333000  0.08333000  0.39081000
   0.83333000  0.33333000  0.39081000
   0.83333000  0.08333000  0.39081000
   0.91667000  0.16667000  0.46360000
   0.91667000  0.41667000  0.46360000
   0.66667000  0.16667000  0.46360000
   0.66667000  0.41667000  0.46360000
   0.74958145  0.00128574  0.53578231
   0.74666373  0.25288134  0.53733126
   0.99885064  0.00175608  0.53553852
   0.99943382  0.25055113  0.53535621
   0.58187897  0.33769881  0.61863714
   0.58328860  0.08525110  0.60907362
   0.83457696  0.33575062  0.60874891
   0.83382764  0.08516497  0.60894330
   0.58333000  0.83333000  0.39081000
   0.58333000  0.58333000  0.39081000
   0.83333000  0.83333000  0.39081000
   0.83333000  0.58333000  0.39081000
   0.91667000  0.66667000  0.46360000
   0.91667000  0.91667000  0.46360000
   0.66667000  0.66667000  0.46360000
   0.66667000  0.91667000  0.46360000
   0.74988387  0.50086992  0.53576907
   0.74958262  0.75104704  0.53575285
   0.99997922  0.50044658  0.53569906
   0.99968050  0.75119192  0.53575323
   0.58271828  0.83601753  0.60880555
   0.58308648  0.58744663  0.60901926
   0.83296839  0.83592610  0.60888365
   0.83335734  0.58590630  0.60885814
   0.47913154  0.38446010  0.70403567
   0.57805905  0.34967734  0.68162642
   0.68204666  0.32038149  0.69443471
 
 position of ions in cartesian coordinates  (Angst):
   2.80354393  3.23728606 12.28925494
   1.40174393  0.80929723 12.28925494
   5.60714393  3.23728606 12.28925494
   4.20534393  0.80929723 12.28925494
   5.60725607  1.61869159 14.57818016
   7.00905607  4.04668041 14.57818016
   2.80365607  1.61869159 14.57818016
   4.20545607  4.04668041 14.57818016
   2.80684267  0.00716628 16.84170152
   4.21783384  2.43557862 16.83636981
   5.61725291  0.01783493 16.84162098
   7.04178541  2.45638489 16.89869365
   2.81545076  3.25481833 19.14319797
   1.41113801  0.83501956 19.14312203
   5.60647218  3.25933785 19.14430511
   4.22032682  0.83324338 19.14214419
   5.60714393  8.09326370 12.28925494
   4.20534393  5.66527488 12.28925494
   8.41074393  8.09326370 12.28925494
   7.00894393  5.66527488 12.28925494
   8.41085607  6.47466923 14.57818016
   9.81265607  8.90265805 14.57818016
   5.60725607  6.47466923 14.57818016
   7.00905607  8.90265805 14.57818016
   5.60971243  4.86443510 16.84474370
   7.01425715  7.28681690 16.83484601
   8.41619367  4.83949089 16.89997108
   9.81241344  7.28493476 16.83866450
   5.62144406  8.12005142 19.14353809
   4.21222681  5.68922436 19.14299668
   8.42179843  8.11928310 19.14243343
   7.00853311  5.70587392 19.14068370
   8.41074393  3.23728606 12.28925494
   7.00894393  0.80929723 12.28925494
  11.21434393  3.23728606 12.28925494
   9.81254393  0.80929723 12.28925494
  11.21445607  1.61869159 14.57818016
  12.61625607  4.04668041 14.57818016
   8.41085607  1.61869159 14.57818016
   9.81265607  4.04668041 14.57818016
   8.41331559  0.01248701 16.84799622
   9.79134200  2.45597228 16.89670380
  11.21135727  0.01705495 16.84033007
  12.61294090  2.43334133 16.83459733
   8.41896831  3.27971577 19.45341610
   7.01925165  0.82795489 19.15268547
  11.24190070  3.26079503 19.14247462
   9.82841373  0.82711837 19.14858738
  11.21434393  8.09326370 12.28925494
   9.81254393  5.66527488 12.28925494
  14.01794393  8.09326370 12.28925494
  12.61614393  5.66527488 12.28925494
  14.01805607  6.47466923 14.57818016
  15.41985607  8.90265805 14.57818016
  11.21445607  6.47466923 14.57818016
  12.61625607  8.90265805 14.57818016
  11.21797546  4.86442630 16.84757977
  12.61739030  7.29413526 16.84706970
  14.02027099  4.86031481 16.84537836
  15.42290035  7.29554231 16.84708168
  11.22255332  8.11936485 19.14425592
   9.83289583  5.70525542 19.15097610
  14.02844553  8.11847691 19.14671158
  12.63089639  5.69029583 19.14590943
   7.52891739  3.73385932 22.13882410
   8.44329618  3.39605068 21.43415191
   9.44518711  3.11153071 21.83691603
 


--------------------------------------------------------------------------------------------------------


 k-point  1 :   0.0000 0.0000 0.0000  plane waves:   62299
 k-point  2 :   0.2500 0.0000 0.0000  plane waves:   62176
 k-point  3 :   0.5000 0.0000 0.0000  plane waves:   62174
 k-point  4 :   0.0000 0.2500 0.0000  plane waves:   62176
 k-point  5 :   0.2500 0.2500 0.0000  plane waves:   62176
 k-point  6 :   0.5000 0.2500 0.0000  plane waves:   62212
 k-point  7 :  -0.2500 0.2500 0.0000  plane waves:   62212
 k-point  8 :   0.0000 0.5000 0.0000  plane waves:   62174
 k-point  9 :   0.2500 0.5000 0.0000  plane waves:   62212
 k-point 10 :   0.5000 0.5000 0.0000  plane waves:   62174

 maximum and minimum number of plane-waves per node :      3961     3830

 maximum number of plane-waves:     62299
 maximum index in each direction: 
   IXMAX=   18   IYMAX=   18   IZMAX=   51
   IXMIN=  -18   IYMIN=  -18   IZMIN=  -51


 real space projection operators:
  total allocation   :      15509.86 KBytes
  max/ min on nodes  :       1161.38        780.39


 parallel 3D FFT for wavefunctions:
    minimum data exchange during FFTs selected (reduces bandwidth)
 parallel 3D FFT for charge:
    minimum data exchange during FFTs selected (reduces bandwidth)


 total amount of memory used by VASP MPI-rank0   103870. kBytes
=======================================================================

   base      :      30000. kBytes
   nonlr-proj:       3435. kBytes
   fftplans  :       2761. kBytes
   grid      :       5191. kBytes
   one-center:         77. kBytes
   wavefun   :      62406. kBytes
 
     INWAV:  cpu time    0.0000: real time    0.0002
 Broyden mixing: mesh for mixing (old mesh)
   NGX = 37   NGY = 37   NGZ =103
  (NGX  = 96   NGY  = 96   NGZ  =270)
  gives a total of 141007 points

 initial charge density was supplied:
 charge density of overlapping atoms calculated
 number of electron     651.0000000 magnetization 
 keeping initial charge density in first step


--------------------------------------------------------------------------------------------------------


 Maximum index for non-local projection operator          239
 Maximum index for augmentation-charges          337 (set IRDMAX)


--------------------------------------------------------------------------------------------------------


 First call to EWALD:  gamma=   0.118
 Maximum number of real-space cells 4x 4x 2
 Maximum number of reciprocal cells 2x 2x 5

    FEWALD:  cpu time    0.0020: real time    0.0020


--------------------------------------- Iteration      1(   1)  ---------------------------------------


    POTLOK:  cpu time    0.0269: real time    0.0327
    SETDIJ:  cpu time    0.0051: real time    0.0091
     EDDAV:  cpu time   11.0307: real time   11.0592
       DOS:  cpu time    0.0027: real time    0.0027
    --------------------------------------------
      LOOP:  cpu time   11.0654: real time   11.1038

 eigenvalue-minimisations  :  7928
 total energy-change (2. order) : 0.4254469E+04  (-0.2377301E+05)
 number of electron     651.0000000 magnetization 
 augmentation part      651.0000000 magnetization 

 Free energy of the ion-electron system (eV)
  ---------------------------------------------------
  alpha Z        PSCENC =      1165.16924622
  Ewald energy   TEWEN  =    409503.79774460
  -Hartree energ DENC   =   -458123.90249567
  -exchange      EXHF   =         0.00000000
  -V(xc)+E(xc)   XCENC  =       258.14971456
  PAW double counting   =     45009.11181811   -43201.36138378
  entropy T*S    EENTRO =         0.00052280
  eigenvalues    EBANDS =      2388.46983383
  atomic energy  EATOM  =     47255.03396832
  Solvation  Ediel_sol  =         0.00000000
  ---------------------------------------------------
  free energy    TOTEN  =      4254.46896899 eV

  energy without entropy =     4254.46844618  energy(sigma->0) =     4254.46879472


--------------------------------------------------------------------------------------------------------




--------------------------------------- Iteration      1(   2)  ---------------------------------------


     EDDAV:  cpu time   13.1045: real time   13.1380
       DOS:  cpu time    0.0027: real time    0.0027
    --------------------------------------------
      LOOP:  cpu time   13.1072: real time   13.1407

 eigenvalue-minimisations  :  9856
 total energy-change (2. order) :-0.4282004E+04  (-0.3947166E+04)
 number of electron     651.0000000 magnetization 
 augmentation part      651.0000000 magnetization 

 Free energy of the ion-electron system (eV)
  ---------------------------------------------------
  alpha Z        PSCENC =      1165.16924622
  Ewald energy   TEWEN  =    409503.79774460
  -Hartree energ DENC   =   -458123.90249567
  -exchange      EXHF   =         0.00000000
  -V(xc)+E(xc)   XCENC  =       258.14971456
  PAW double counting   =     45009.11181811   -43201.36138378
  entropy T*S    EENTRO =         0.00288090
  eigenvalues    EBANDS =     -1893.53656456
  atomic energy  EATOM  =     47255.03396832
  Solvation  Ediel_sol  =         0.00000000
  ---------------------------------------------------
  free energy    TOTEN  =       -27.53507131 eV

  energy without entropy =      -27.53795221  energy(sigma->0) =      -27.53603161


--------------------------------------------------------------------------------------------------------




--------------------------------------- Iteration      1(   3)  ---------------------------------------


     EDDAV:  cpu time   12.1894: real time   12.2255
       DOS:  cpu time    0.0029: real time    0.0029
    --------------------------------------------
      LOOP:  cpu time   12.1923: real time   12.2285

 eigenvalue-minimisations  :  9008
 total energy-change (2. order) :-0.3711971E+03  (-0.3397902E+03)
 number of electron     651.0000000 magnetization 
 augmentation part      651.0000000 magnetization 

 Free energy of the ion-electron system (eV)
  ---------------------------------------------------
  alpha Z        PSCENC =      1165.16924622
  Ewald energy   TEWEN  =    409503.79774460
  -Hartree energ DENC   =   -458123.90249567
  -exchange      EXHF   =         0.00000000
  -V(xc)+E(xc)   XCENC  =       258.14971456
  PAW double counting   =     45009.11181811   -43201.36138378
  entropy T*S    EENTRO =        -0.04341054
  eigenvalues    EBANDS =     -2264.68737763
  atomic energy  EATOM  =     47255.03396832
  Solvation  Ediel_sol  =         0.00000000
  ---------------------------------------------------
  free energy    TOTEN  =      -398.73217582 eV

  energy without entropy =     -398.68876528  energy(sigma->0) =     -398.71770564


--------------------------------------------------------------------------------------------------------




--------------------------------------- Iteration      1(   4)  ---------------------------------------


     EDDAV:  cpu time   13.8768: real time   13.9116
       DOS:  cpu time    0.0034: real time    0.0034
    --------------------------------------------
      LOOP:  cpu time   13.8802: real time   13.9149

 eigenvalue-minimisations  : 10592
 total energy-change (2. order) :-0.1804775E+02  (-0.1669745E+02)
 number of electron     651.0000000 magnetization 
 augmentation part      651.0000000 magnetization 

 Free energy of the ion-electron system (eV)
  ---------------------------------------------------
  alpha Z        PSCENC =      1165.16924622
  Ewald energy   TEWEN  =    409503.79774460
  -Hartree energ DENC   =   -458123.90249567
  -exchange      EXHF   =         0.00000000
  -V(xc)+E(xc)   XCENC  =       258.14971456
  PAW double counting   =     45009.11181811   -43201.36138378
  entropy T*S    EENTRO =        -0.07721959
  eigenvalues    EBANDS =     -2282.70132278
  atomic energy  EATOM  =     47255.03396832
  Solvation  Ediel_sol  =         0.00000000
  ---------------------------------------------------
  free energy    TOTEN  =      -416.77993002 eV

  energy without entropy =     -416.70271043  energy(sigma->0) =     -416.75419015


--------------------------------------------------------------------------------------------------------




--------------------------------------- Iteration      1(   5)  ---------------------------------------


     EDDAV:  cpu time   13.0309: real time   13.0642
       DOS:  cpu time    0.0030: real time    0.0030
    CHARGE:  cpu time    0.2896: real time    0.2903
    MIXING:  cpu time    0.0018: real time    0.0019
    --------------------------------------------
      LOOP:  cpu time   13.3254: real time   13.3595

 eigenvalue-minimisations  :  9792
 total energy-change (2. order) :-0.5045076E+00  (-0.4980437E+00)
 number of electron     650.9999199 magnetization 
 augmentation part      186.7736095 magnetization 

 Broyden mixing:
  rms(total) = 0.82049E+01    rms(broyden)= 0.82047E+01
  rms(prec ) = 0.82767E+01
  weight for this iteration     100.00

 Free energy of the ion-electron system (eV)
  ---------------------------------------------------
  alpha Z        PSCENC =      1165.16924622
  Ewald energy   TEWEN  =    409503.79774460
  -Hartree energ DENC   =   -458123.90249567
  -exchange      EXHF   =         0.00000000
  -V(xc)+E(xc)   XCENC  =       258.14971456
  PAW double counting   =     45009.11181811   -43201.36138378
  entropy T*S    EENTRO =        -0.07791982
  eigenvalues    EBANDS =     -2283.20513014
  atomic energy  EATOM  =     47255.03396832
  Solvation  Ediel_sol  =         0.00000000
  ---------------------------------------------------
  free energy    TOTEN  =      -417.28443762 eV

  energy without entropy =     -417.20651779  energy(sigma->0) =     -417.25846434


--------------------------------------------------------------------------------------------------------




--------------------------------------- Iteration      1(   6)  ---------------------------------------


    POTLOK:  cpu time    0.0221: real time    0.0238
    SETDIJ:  cpu time    0.0032: real time    0.0053
    EDDIAG:  cpu time    1.5745: real time    1.5785
  RMM-DIIS:  cpu time    4.8115: real time    4.8229
    ORTHCH:  cpu time    0.4911: real time    0.4933
       DOS:  cpu time    0.0040: real time    0.0040
    CHARGE:  cpu time    0.2851: real time    0.2858
    MIXING:  cpu time    0.0017: real time    0.0017
    --------------------------------------------
      LOOP:  cpu time    7.1934: real time    7.2153

 eigenvalue-minimisations  :  7868
 total energy-change (2. order) : 0.1312640E+02  (-0.8051081E+01)
 number of electron     650.9999111 magnetization 
 augmentation part      197.8824447 magnetization 

 Broyden mixing:
  rms(total) = 0.61962E+01    rms(broyden)= 0.61959E+01
  rms(prec ) = 0.64176E+01
  weight for this iteration     100.00

 eigenvalues of (default mixing * dielectric matrix)
  average eigenvalue GAMMA=   1.1253
  1.1253

 Free energy of the ion-electron system (eV)
  ---------------------------------------------------
  alpha Z        PSCENC =      1165.16924622
  Ewald energy   TEWEN  =    409503.79774460
  -Hartree energ DENC   =   -457260.22133991
  -exchange      EXHF   =         0.00000000
  -V(xc)+E(xc)   XCENC  =       242.77905740
  PAW double counting   =     49581.28237100   -47867.29559375
  entropy T*S    EENTRO =        -0.02847409
  eigenvalues    EBANDS =     -3024.67502163
  atomic energy  EATOM  =     47255.03396832
  Solvation  Ediel_sol  =         0.00000000
  ---------------------------------------------------
  free energy    TOTEN  =      -404.15804183 eV

  energy without entropy =     -404.12956775  energy(sigma->0) =     -404.14855047


--------------------------------------------------------------------------------------------------------




--------------------------------------- Iteration      1(   7)  ---------------------------------------


    POTLOK:  cpu time    0.0214: real time    0.0245
    SETDIJ:  cpu time    0.0035: real time    0.0070
    EDDIAG:  cpu time    1.5764: real time    1.5818
  RMM-DIIS:  cpu time    4.7593: real time    4.7716
    ORTHCH:  cpu time    0.4935: real time    0.4948
       DOS:  cpu time    0.0029: real time    0.0029
    CHARGE:  cpu time    0.2891: real time    0.2898
    MIXING:  cpu time    0.0013: real time    0.0013
    --------------------------------------------
      LOOP:  cpu time    7.1472: real time    7.1736

 eigenvalue-minimisations  :  7857
 total energy-change (2. order) :-0.7575240E+02  (-0.1541442E+02)
 number of electron     650.9999147 magnetization 
 augmentation part      194.0894072 magnetization 

 Broyden mixing:
  rms(total) = 0.76613E+01    rms(broyden)= 0.76609E+01
  rms(prec ) = 0.85395E+01
  weight for this iteration     100.00

 eigenvalues of (default mixing * dielectric matrix)
  average eigenvalue GAMMA=   1.1494
  2.0197  0.2791

 Free energy of the ion-electron system (eV)
  ---------------------------------------------------
  alpha Z        PSCENC =      1165.16924622
  Ewald energy   TEWEN  =    409503.79774460
  -Hartree energ DENC   =   -458008.08173735
  -exchange      EXHF   =         0.00000000
  -V(xc)+E(xc)   XCENC  =       237.50804735
  PAW double counting   =     52722.37343193   -51042.03852702
  entropy T*S    EENTRO =        -0.01973964
  eigenvalues    EBANDS =     -2313.65287901
  atomic energy  EATOM  =     47255.03396832
  Solvation  Ediel_sol  =         0.00000000
  ---------------------------------------------------
  free energy    TOTEN  =      -479.91044460 eV

  energy without entropy =     -479.89070496  energy(sigma->0) =     -479.90386472


--------------------------------------------------------------------------------------------------------




--------------------------------------- Iteration      1(   8)  ---------------------------------------


    POTLOK:  cpu time    0.0206: real time    0.0209
    SETDIJ:  cpu time    0.0036: real time    0.0036
    EDDIAG:  cpu time    1.5830: real time    1.5870
  RMM-DIIS:  cpu time    4.8212: real time    4.8335
    ORTHCH:  cpu time    0.4939: real time    0.4952
       DOS:  cpu time    0.0030: real time    0.0030
    CHARGE:  cpu time    0.2826: real time    0.2833
    MIXING:  cpu time    0.0014: real time    0.0014
    --------------------------------------------
      LOOP:  cpu time    7.2093: real time    7.2280

 eigenvalue-minimisations  :  7877
 total energy-change (2. order) : 0.7165393E+02  (-0.5545942E+01)
 number of electron     650.9999119 magnetization 
 augmentation part      200.6872344 magnetization 

 Broyden mixing:
  rms(total) = 0.39200E+01    rms(broyden)= 0.39199E+01
  rms(prec ) = 0.46637E+01
  weight for this iteration     100.00

 eigenvalues of (default mixing * dielectric matrix)
  average eigenvalue GAMMA=   0.9471
  2.1358  0.3527  0.3527

 Free energy of the ion-electron system (eV)
  ---------------------------------------------------
  alpha Z        PSCENC =      1165.16924622
  Ewald energy   TEWEN  =    409503.79774460
  -Hartree energ DENC   =   -457423.83539683
  -exchange      EXHF   =         0.00000000
  -V(xc)+E(xc)   XCENC  =       233.65193140
  PAW double counting   =     56217.62444449   -54583.34240072
  entropy T*S    EENTRO =         0.02714775
  eigenvalues    EBANDS =     -2776.38320113
  atomic energy  EATOM  =     47255.03396832
  Solvation  Ediel_sol  =         0.00000000
  ---------------------------------------------------
  free energy    TOTEN  =      -408.25651591 eV

  energy without entropy =     -408.28366366  energy(sigma->0) =     -408.26556516


--------------------------------------------------------------------------------------------------------




--------------------------------------- Iteration      1(   9)  ---------------------------------------


    POTLOK:  cpu time    0.0203: real time    0.0263
    SETDIJ:  cpu time    0.0036: real time    0.0036
    EDDIAG:  cpu time    1.5826: real time    1.5865
  RMM-DIIS:  cpu time    4.7824: real time    4.7938
    ORTHCH:  cpu time    0.4888: real time    0.4900
       DOS:  cpu time    0.0030: real time    0.0030
    CHARGE:  cpu time    0.2848: real time    0.2855
    MIXING:  cpu time    0.0011: real time    0.0011
    --------------------------------------------
      LOOP:  cpu time    7.1667: real time    7.1897

 eigenvalue-minimisations  :  7866
 total energy-change (2. order) :-0.3618005E+02  (-0.4715850E+01)
 number of electron     650.9999215 magnetization 
 augmentation part      198.7787248 magnetization 

 Broyden mixing:
  rms(total) = 0.56947E+01    rms(broyden)= 0.56945E+01
  rms(prec ) = 0.77860E+01
  weight for this iteration     100.00

 eigenvalues of (default mixing * dielectric matrix)
  average eigenvalue GAMMA=   0.8578
  2.2631  0.7324  0.2905  0.1454

 Free energy of the ion-electron system (eV)
  ---------------------------------------------------
  alpha Z        PSCENC =      1165.16924622
  Ewald energy   TEWEN  =    409503.79774460
  -Hartree energ DENC   =   -457380.67691365
  -exchange      EXHF   =         0.00000000
  -V(xc)+E(xc)   XCENC  =       234.41455109
  PAW double counting   =     56752.92555392   -55121.88102384
  entropy T*S    EENTRO =         0.02239239
  eigenvalues    EBANDS =     -2853.24208717
  atomic energy  EATOM  =     47255.03396832
  Solvation  Ediel_sol  =         0.00000000
  ---------------------------------------------------
  free energy    TOTEN  =      -444.43656813 eV

  energy without entropy =     -444.45896052  energy(sigma->0) =     -444.44403226


--------------------------------------------------------------------------------------------------------




--------------------------------------- Iteration      1(  10)  ---------------------------------------


    POTLOK:  cpu time    0.0200: real time    0.0224
    SETDIJ:  cpu time    0.0036: real time    0.0036
    EDDIAG:  cpu time    1.5831: real time    1.5868
  RMM-DIIS:  cpu time    4.8275: real time    4.8390
    ORTHCH:  cpu time    0.4867: real time    0.4879
       DOS:  cpu time    0.0032: real time    0.0032
    CHARGE:  cpu time    0.2889: real time    0.2896
    MIXING:  cpu time    0.0012: real time    0.0012
    --------------------------------------------
      LOOP:  cpu time    7.2141: real time    7.2336

 eigenvalue-minimisations  :  7862
 total energy-change (2. order) : 0.3505280E+02  (-0.2851711E+01)
 number of electron     650.9999081 magnetization 
 augmentation part      199.9679276 magnetization 

 Broyden mixing:
  rms(total) = 0.38632E+01    rms(broyden)= 0.38628E+01
  rms(prec ) = 0.46367E+01
  weight for this iteration     100.00

 eigenvalues of (default mixing * dielectric matrix)
  average eigenvalue GAMMA=   0.7761
  2.3076  0.9303  0.2656  0.2656  0.1114

 Free energy of the ion-electron system (eV)
  ---------------------------------------------------
  alpha Z        PSCENC =      1165.16924622
  Ewald energy   TEWEN  =    409503.79774460
  -Hartree energ DENC   =   -457449.46488181
  -exchange      EXHF   =         0.00000000
  -V(xc)+E(xc)   XCENC  =       234.96948742
  PAW double counting   =     57213.22532394   -55585.53482714
  entropy T*S    EENTRO =         0.01192449
  eigenvalues    EBANDS =     -2746.59175383
  atomic energy  EATOM  =     47255.03396832
  Solvation  Ediel_sol  =         0.00000000
  ---------------------------------------------------
  free energy    TOTEN  =      -409.38376779 eV

  energy without entropy =     -409.39569228  energy(sigma->0) =     -409.38774262


--------------------------------------------------------------------------------------------------------




--------------------------------------- Iteration      1(  11)  ---------------------------------------


    POTLOK:  cpu time    0.0198: real time    0.0200
    SETDIJ:  cpu time    0.0036: real time    0.0036
    EDDIAG:  cpu time    1.5850: real time    1.5888
  RMM-DIIS:  cpu time    4.8062: real time    4.8177
    ORTHCH:  cpu time    0.4909: real time    0.4920
       DOS:  cpu time    0.0031: real time    0.0031
    CHARGE:  cpu time    0.2900: real time    0.2906
    MIXING:  cpu time    0.0012: real time    0.0012
    --------------------------------------------
      LOOP:  cpu time    7.1997: real time    7.2171

 eigenvalue-minimisations  :  7872
 total energy-change (2. order) : 0.1404068E+02  (-0.7413213E+00)
 number of electron     650.9999093 magnetization 
 augmentation part      199.8913356 magnetization 

 Broyden mixing:
  rms(total) = 0.21112E+01    rms(broyden)= 0.21111E+01
  rms(prec ) = 0.23184E+01
  weight for this iteration     100.00

 eigenvalues of (default mixing * dielectric matrix)
  average eigenvalue GAMMA=   0.6977
  2.2009  0.9965  0.3289  0.2747  0.2747  0.1103

 Free energy of the ion-electron system (eV)
  ---------------------------------------------------
  alpha Z        PSCENC =      1165.16924622
  Ewald energy   TEWEN  =    409503.79774460
  -Hartree energ DENC   =   -457449.57668149
  -exchange      EXHF   =         0.00000000
  -V(xc)+E(xc)   XCENC  =       235.45810024
  PAW double counting   =     57448.43297876   -55821.96210445
  entropy T*S    EENTRO =        -0.02799925
  eigenvalues    EBANDS =     -2731.66834346
  atomic energy  EATOM  =     47255.03396832
  Solvation  Ediel_sol  =         0.00000000
  ---------------------------------------------------
  free energy    TOTEN  =      -395.34309052 eV

  energy without entropy =     -395.31509126  energy(sigma->0) =     -395.33375743


--------------------------------------------------------------------------------------------------------




--------------------------------------- Iteration      1(  12)  ---------------------------------------


    POTLOK:  cpu time    0.0203: real time    0.0205
    SETDIJ:  cpu time    0.0034: real time    0.0034
    EDDIAG:  cpu time    1.5816: real time    1.5854
  RMM-DIIS:  cpu time    4.8223: real time    4.8338
    ORTHCH:  cpu time    0.4923: real time    0.4934
       DOS:  cpu time    0.0030: real time    0.0030
    CHARGE:  cpu time    0.2848: real time    0.2855
    MIXING:  cpu time    0.0017: real time    0.0017
    --------------------------------------------
      LOOP:  cpu time    7.2094: real time    7.2268

 eigenvalue-minimisations  :  7875
 total energy-change (2. order) : 0.2784617E+01  (-0.3910092E+00)
 number of electron     650.9999116 magnetization 
 augmentation part      199.8290871 magnetization 

 Broyden mixing:
  rms(total) = 0.15520E+01    rms(broyden)= 0.15519E+01
  rms(prec ) = 0.16996E+01
  weight for this iteration     100.00

 eigenvalues of (default mixing * dielectric matrix)
  average eigenvalue GAMMA=   0.6448
  2.0947  0.9915  0.4170  0.4170  0.2883  0.1951  0.1100

 Free energy of the ion-electron system (eV)
  ---------------------------------------------------
  alpha Z        PSCENC =      1165.16924622
  Ewald energy   TEWEN  =    409503.79774460
  -Hartree energ DENC   =   -457428.26342291
  -exchange      EXHF   =         0.00000000
  -V(xc)+E(xc)   XCENC  =       235.94298895
  PAW double counting   =     57300.93528391   -55671.58259603
  entropy T*S    EENTRO =        -0.01513557
  eigenvalues    EBANDS =     -2753.57655146
  atomic energy  EATOM  =     47255.03396832
  Solvation  Ediel_sol  =         0.00000000
  ---------------------------------------------------
  free energy    TOTEN  =      -392.55847398 eV

  energy without entropy =     -392.54333841  energy(sigma->0) =     -392.55342879


--------------------------------------------------------------------------------------------------------




--------------------------------------- Iteration      1(  13)  ---------------------------------------


    POTLOK:  cpu time    0.0197: real time    0.0213
    SETDIJ:  cpu time    0.0036: real time    0.0036
    EDDIAG:  cpu time    1.5846: real time    1.5884
  RMM-DIIS:  cpu time    4.8276: real time    4.8391
    ORTHCH:  cpu time    0.4967: real time    0.4979
       DOS:  cpu time    0.0031: real time    0.0031
    CHARGE:  cpu time    0.2847: real time    0.2854
    MIXING:  cpu time    0.0014: real time    0.0014
    --------------------------------------------
      LOOP:  cpu time    7.2214: real time    7.2402

 eigenvalue-minimisations  :  7885
 total energy-change (2. order) : 0.1256767E+01  (-0.2068958E+00)
 number of electron     650.9999113 magnetization 
 augmentation part      199.7701773 magnetization 

 Broyden mixing:
  rms(total) = 0.10914E+01    rms(broyden)= 0.10914E+01
  rms(prec ) = 0.11875E+01
  weight for this iteration     100.00

 eigenvalues of (default mixing * dielectric matrix)
  average eigenvalue GAMMA=   0.6286
  2.0994  0.9341  0.5857  0.5857  0.2645  0.2645  0.1104  0.1842

 Free energy of the ion-electron system (eV)
  ---------------------------------------------------
  alpha Z        PSCENC =      1165.16924622
  Ewald energy   TEWEN  =    409503.79774460
  -Hartree energ DENC   =   -457416.00384284
  -exchange      EXHF   =         0.00000000
  -V(xc)+E(xc)   XCENC  =       236.24546136
  PAW double counting   =     57167.33081317   -55535.61104993
  entropy T*S    EENTRO =        -0.03825981
  eigenvalues    EBANDS =     -2767.22578804
  atomic energy  EATOM  =     47255.03396832
  Solvation  Ediel_sol  =         0.00000000
  ---------------------------------------------------
  free energy    TOTEN  =      -391.30170695 eV

  energy without entropy =     -391.26344713  energy(sigma->0) =     -391.28895367


--------------------------------------------------------------------------------------------------------




--------------------------------------- Iteration      1(  14)  ---------------------------------------


    POTLOK:  cpu time    0.0215: real time    0.0243
    SETDIJ:  cpu time    0.0034: real time    0.0068
    EDDIAG:  cpu time    1.5822: real time    1.5865
  RMM-DIIS:  cpu time    4.8089: real time    4.8204
    ORTHCH:  cpu time    0.4936: real time    0.4947
       DOS:  cpu time    0.0031: real time    0.0031
    CHARGE:  cpu time    0.2833: real time    0.2839
    MIXING:  cpu time    0.0012: real time    0.0012
    --------------------------------------------
      LOOP:  cpu time    7.1971: real time    7.2211

 eigenvalue-minimisations  :  7884
 total energy-change (2. order) : 0.1065586E+01  (-0.1011057E+00)
 number of electron     650.9999115 magnetization 
 augmentation part      199.7839572 magnetization 

 Broyden mixing:
  rms(total) = 0.70421E+00    rms(broyden)= 0.70418E+00
  rms(prec ) = 0.75547E+00
  weight for this iteration     100.00

 eigenvalues of (default mixing * dielectric matrix)
  average eigenvalue GAMMA=   0.6212
  2.1364  0.9278  0.6945  0.6945  0.2832  0.2832  0.2787  0.1103  0.1819

 Free energy of the ion-electron system (eV)
  ---------------------------------------------------
  alpha Z        PSCENC =      1165.16924622
  Ewald energy   TEWEN  =    409503.79774460
  -Hartree energ DENC   =   -457416.06365091
  -exchange      EXHF   =         0.00000000
  -V(xc)+E(xc)   XCENC  =       236.29824744
  PAW double counting   =     57163.98080449   -55532.11378028
  entropy T*S    EENTRO =        -0.04216034
  eigenvalues    EBANDS =     -2766.29654083
  atomic energy  EATOM  =     47255.03396832
  Solvation  Ediel_sol  =         0.00000000
  ---------------------------------------------------
  free energy    TOTEN  =      -390.23612129 eV

  energy without entropy =     -390.19396095  energy(sigma->0) =     -390.22206784


--------------------------------------------------------------------------------------------------------




--------------------------------------- Iteration      1(  15)  ---------------------------------------


    POTLOK:  cpu time    0.0202: real time    0.0232
    SETDIJ:  cpu time    0.0036: real time    0.0037
    EDDIAG:  cpu time    1.5888: real time    1.5926
  RMM-DIIS:  cpu time    4.8234: real time    4.8349
    ORTHCH:  cpu time    0.4917: real time    0.4929
       DOS:  cpu time    0.0031: real time    0.0031
    CHARGE:  cpu time    0.2848: real time    0.2854
    MIXING:  cpu time    0.0017: real time    0.0017
    --------------------------------------------
      LOOP:  cpu time    7.2174: real time    7.2376

 eigenvalue-minimisations  :  7887
 total energy-change (2. order) : 0.2829692E+00  (-0.3982230E-01)
 number of electron     650.9999118 magnetization 
 augmentation part      199.7614048 magnetization 

 Broyden mixing:
  rms(total) = 0.44114E+00    rms(broyden)= 0.44112E+00
  rms(prec ) = 0.46255E+00
  weight for this iteration     100.00

 eigenvalues of (default mixing * dielectric matrix)
  average eigenvalue GAMMA=   0.6061
  2.1050  0.9562  0.7644  0.7644  0.2950  0.2950  0.3129  0.2739  0.1103  0.1835

 Free energy of the ion-electron system (eV)
  ---------------------------------------------------
  alpha Z        PSCENC =      1165.16924622
  Ewald energy   TEWEN  =    409503.79774460
  -Hartree energ DENC   =   -457430.50088034
  -exchange      EXHF   =         0.00000000
  -V(xc)+E(xc)   XCENC  =       236.29102031
  PAW double counting   =     57194.03071218   -55562.50268625
  entropy T*S    EENTRO =        -0.04462485
  eigenvalues    EBANDS =     -2751.22765224
  atomic energy  EATOM  =     47255.03396832
  Solvation  Ediel_sol  =         0.00000000
  ---------------------------------------------------
  free energy    TOTEN  =      -389.95315205 eV

  energy without entropy =     -389.90852720  energy(sigma->0) =     -389.93827710


--------------------------------------------------------------------------------------------------------




--------------------------------------- Iteration      1(  16)  ---------------------------------------


    POTLOK:  cpu time    0.0194: real time    0.0196
    SETDIJ:  cpu time    0.0037: real time    0.0037
    EDDIAG:  cpu time    1.5884: real time    1.5923
  RMM-DIIS:  cpu time    4.8402: real time    4.8517
    ORTHCH:  cpu time    0.4896: real time    0.4907
       DOS:  cpu time    0.0033: real time    0.0033
    CHARGE:  cpu time    0.2896: real time    0.2902
    MIXING:  cpu time    0.0015: real time    0.0015
    --------------------------------------------
      LOOP:  cpu time    7.2357: real time    7.2530

 eigenvalue-minimisations  :  7906
 total energy-change (2. order) : 0.2490024E-01  (-0.9855892E-02)
 number of electron     650.9999116 magnetization 
 augmentation part      199.7222217 magnetization 

 Broyden mixing:
  rms(total) = 0.39815E+00    rms(broyden)= 0.39814E+00
  rms(prec ) = 0.41600E+00
  weight for this iteration     100.00

 eigenvalues of (default mixing * dielectric matrix)
  average eigenvalue GAMMA=   0.6126
  2.0431  0.9939  0.9108  0.9108  0.4231  0.4231  0.2745  0.2745  0.1103  0.1780
  0.1970

 Free energy of the ion-electron system (eV)
  ---------------------------------------------------
  alpha Z        PSCENC =      1165.16924622
  Ewald energy   TEWEN  =    409503.79774460
  -Hartree energ DENC   =   -457437.22697187
  -exchange      EXHF   =         0.00000000
  -V(xc)+E(xc)   XCENC  =       236.37053885
  PAW double counting   =     57168.30443079   -55536.23540687
  entropy T*S    EENTRO =        -0.04153333
  eigenvalues    EBANDS =     -2745.10026852
  atomic energy  EATOM  =     47255.03396832
  Solvation  Ediel_sol  =         0.00000000
  ---------------------------------------------------
  free energy    TOTEN  =      -389.92825181 eV

  energy without entropy =     -389.88671848  energy(sigma->0) =     -389.91440737


--------------------------------------------------------------------------------------------------------




--------------------------------------- Iteration      1(  17)  ---------------------------------------


    POTLOK:  cpu time    0.0196: real time    0.0198
    SETDIJ:  cpu time    0.0036: real time    0.0036
    EDDIAG:  cpu time    1.5828: real time    1.5866
  RMM-DIIS:  cpu time    4.8249: real time    4.8364
    ORTHCH:  cpu time    0.4921: real time    0.4933
       DOS:  cpu time    0.0033: real time    0.0033
    CHARGE:  cpu time    0.2820: real time    0.2827
    MIXING:  cpu time    0.0017: real time    0.0017
    --------------------------------------------
      LOOP:  cpu time    7.2100: real time    7.2274

 eigenvalue-minimisations  :  7885
 total energy-change (2. order) :-0.1438668E-01  (-0.7181442E-02)
 number of electron     650.9999116 magnetization 
 augmentation part      199.6724827 magnetization 

 Broyden mixing:
  rms(total) = 0.39477E+00    rms(broyden)= 0.39477E+00
  rms(prec ) = 0.42156E+00
  weight for this iteration     100.00

 eigenvalues of (default mixing * dielectric matrix)
  average eigenvalue GAMMA=   0.6562
  1.8872  1.2734  1.2734  0.9937  0.5967  0.5967  0.2781  0.2781  0.2433  0.1103
  0.1823  0.1614

 Free energy of the ion-electron system (eV)
[...]
      8.410856  6.474669 14.578180            0           0           0  
      9.812656  8.902658 14.578180            0           0           0  
      5.607256  6.474669 14.578180            0           0           0  
      7.009056  8.902658 14.578180            0           0           0  
      5.609712  4.864435 16.844744            0           0           0  
      7.014257  7.286817 16.834846            0           0           0  
      8.416194  4.839491 16.899971            0           0           0  
      9.812413  7.284935 16.838665            0           0           0  
      5.621444  8.120051 19.143538            0           0           0  
      4.212227  5.689224 19.142997            0           0           0  
      8.421798  8.119283 19.142433            0           0           0  
      7.008533  5.705874 19.140684            0           0           0  
      8.410744  3.237286 12.289255            0           0           0  
      7.008944  0.809297 12.289255            0           0           0  
     11.214344  3.237286 12.289255            0           0           0  
      9.812544  0.809297 12.289255            0           0           0  
     11.214456  1.618692 14.578180            0           0           0  
     12.616256  4.046680 14.578180            0           0           0  
      8.410856  1.618692 14.578180            0           0           0  
      9.812656  4.046680 14.578180            0           0           0  
      8.413316  0.012487 16.847996            0           0           0  
      9.791342  2.455972 16.896704            0           0           0  
     11.211357  0.017055 16.840330            0           0           0  
     12.612941  2.433341 16.834597            0           0           0  
      8.418968  3.279716 19.453416            0           0           0  
      7.019252  0.827955 19.152685            0           0           0  
     11.241901  3.260795 19.142475            0           0           0  
      9.828414  0.827118 19.148587            0           0           0  
     11.214344  8.093264 12.289255            0           0           0  
      9.812544  5.665275 12.289255            0           0           0  
     14.017944  8.093264 12.289255            0           0           0  
     12.616144  5.665275 12.289255            0           0           0  
     14.018056  6.474669 14.578180            0           0           0  
     15.419856  8.902658 14.578180            0           0           0  
     11.214456  6.474669 14.578180            0           0           0  
     12.616256  8.902658 14.578180            0           0           0  
     11.217975  4.864426 16.847580            0           0           0  
     12.617390  7.294135 16.847070            0           0           0  
     14.020271  4.860315 16.845378            0           0           0  
     15.422900  7.295542 16.847082            0           0           0  
     11.222553  8.119365 19.144256            0           0           0  
      9.832896  5.705255 19.150976            0           0           0  
     14.028446  8.118477 19.146712            0           0           0  
     12.630896  5.690296 19.145909            0           0           0  
      7.528917  3.733859 22.138824    -0.075802    0.074187    0.851289  
      8.443296  3.396051 21.434152    -0.410209    0.149916    0.256338  
      9.445187  3.111531 21.836916    -0.077544    0.028120   -0.028249  
 
   7 f  =    3.790621 THz    23.817171 2PiTHz  126.441487 cm-1    15.676752 meV
             X         Y         Z           dx          dy          dz
      2.803544  3.237286 12.289255            0           0           0  
      1.401744  0.809297 12.289255            0           0           0  
      5.607144  3.237286 12.289255            0           0           0  
      4.205344  0.809297 12.289255            0           0           0  
      5.607256  1.618692 14.578180            0           0           0  
      7.009056  4.046680 14.578180            0           0           0  
      2.803656  1.618692 14.578180            0           0           0  
      4.205456  4.046680 14.578180            0           0           0  
      2.806843  0.007166 16.841702            0           0           0  
      4.217834  2.435579 16.836370            0           0           0  
      5.617253  0.017835 16.841621            0           0           0  
      7.041785  2.456385 16.898694            0           0           0  
      2.815451  3.254818 19.143198            0           0           0  
      1.411138  0.835020 19.143122            0           0           0  
      5.606472  3.259338 19.144305            0           0           0  
      4.220327  0.833243 19.142144            0           0           0  
      5.607144  8.093264 12.289255            0           0           0  
      4.205344  5.665275 12.289255            0           0           0  
      8.410744  8.093264 12.289255            0           0           0  
      7.008944  5.665275 12.289255            0           0           0  
      8.410856  6.474669 14.578180            0           0           0  
      9.812656  8.902658 14.578180            0           0           0  
      5.607256  6.474669 14.578180            0           0           0  
      7.009056  8.902658 14.578180            0           0           0  
      5.609712  4.864435 16.844744            0           0           0  
      7.014257  7.286817 16.834846            0           0           0  
      8.416194  4.839491 16.899971            0           0           0  
      9.812413  7.284935 16.838665            0           0           0  
      5.621444  8.120051 19.143538            0           0           0  
      4.212227  5.689224 19.142997            0           0           0  
      8.421798  8.119283 19.142433            0           0           0  
      7.008533  5.705874 19.140684            0           0           0  
      8.410744  3.237286 12.289255            0           0           0  
      7.008944  0.809297 12.289255            0           0           0  
     11.214344  3.237286 12.289255            0           0           0  
      9.812544  0.809297 12.289255            0           0           0  
     11.214456  1.618692 14.578180            0           0           0  
     12.616256  4.046680 14.578180            0           0           0  
      8.410856  1.618692 14.578180            0           0           0  
      9.812656  4.046680 14.578180            0           0           0  
      8.413316  0.012487 16.847996            0           0           0  
      9.791342  2.455972 16.896704            0           0           0  
     11.211357  0.017055 16.840330            0           0           0  
     12.612941  2.433341 16.834597            0           0           0  
      8.418968  3.279716 19.453416            0           0           0  
      7.019252  0.827955 19.152685            0           0           0  
     11.241901  3.260795 19.142475            0           0           0  
      9.828414  0.827118 19.148587            0           0           0  
     11.214344  8.093264 12.289255            0           0           0  
      9.812544  5.665275 12.289255            0           0           0  
     14.017944  8.093264 12.289255            0           0           0  
     12.616144  5.665275 12.289255            0           0           0  
     14.018056  6.474669 14.578180            0           0           0  
     15.419856  8.902658 14.578180            0           0           0  
     11.214456  6.474669 14.578180            0           0           0  
     12.616256  8.902658 14.578180            0           0           0  
     11.217975  4.864426 16.847580            0           0           0  
     12.617390  7.294135 16.847070            0           0           0  
     14.020271  4.860315 16.845378            0           0           0  
     15.422900  7.295542 16.847082            0           0           0  
     11.222553  8.119365 19.144256            0           0           0  
      9.832896  5.705255 19.150976            0           0           0  
     14.028446  8.118477 19.146712            0           0           0  
     12.630896  5.690296 19.145909            0           0           0  
      7.528917  3.733859 22.138824    -0.026232   -0.245300    0.039549  
      8.443296  3.396051 21.434152    -0.216862   -0.766803    0.047496  
      9.445187  3.111531 21.836916    -0.153600   -0.525319    0.027406  
 
   8 f  =    2.263401 THz    14.221371 2PiTHz   75.498944 cm-1     9.360679 meV
             X         Y         Z           dx          dy          dz
      2.803544  3.237286 12.289255            0           0           0  
      1.401744  0.809297 12.289255            0           0           0  
      5.607144  3.237286 12.289255            0           0           0  
      4.205344  0.809297 12.289255            0           0           0  
      5.607256  1.618692 14.578180            0           0           0  
      7.009056  4.046680 14.578180            0           0           0  
      2.803656  1.618692 14.578180            0           0           0  
      4.205456  4.046680 14.578180            0           0           0  
      2.806843  0.007166 16.841702            0           0           0  
      4.217834  2.435579 16.836370            0           0           0  
      5.617253  0.017835 16.841621            0           0           0  
      7.041785  2.456385 16.898694            0           0           0  
      2.815451  3.254818 19.143198            0           0           0  
      1.411138  0.835020 19.143122            0           0           0  
      5.606472  3.259338 19.144305            0           0           0  
      4.220327  0.833243 19.142144            0           0           0  
      5.607144  8.093264 12.289255            0           0           0  
      4.205344  5.665275 12.289255            0           0           0  
      8.410744  8.093264 12.289255            0           0           0  
      7.008944  5.665275 12.289255            0           0           0  
      8.410856  6.474669 14.578180            0           0           0  
      9.812656  8.902658 14.578180            0           0           0  
      5.607256  6.474669 14.578180            0           0           0  
      7.009056  8.902658 14.578180            0           0           0  
      5.609712  4.864435 16.844744            0           0           0  
      7.014257  7.286817 16.834846            0           0           0  
      8.416194  4.839491 16.899971            0           0           0  
      9.812413  7.284935 16.838665            0           0           0  
      5.621444  8.120051 19.143538            0           0           0  
      4.212227  5.689224 19.142997            0           0           0  
      8.421798  8.119283 19.142433            0           0           0  
      7.008533  5.705874 19.140684            0           0           0  
      8.410744  3.237286 12.289255            0           0           0  
      7.008944  0.809297 12.289255            0           0           0  
     11.214344  3.237286 12.289255            0           0           0  
      9.812544  0.809297 12.289255            0           0           0  
     11.214456  1.618692 14.578180            0           0           0  
     12.616256  4.046680 14.578180            0           0           0  
      8.410856  1.618692 14.578180            0           0           0  
      9.812656  4.046680 14.578180            0           0           0  
      8.413316  0.012487 16.847996            0           0           0  
      9.791342  2.455972 16.896704            0           0           0  
     11.211357  0.017055 16.840330            0           0           0  
     12.612941  2.433341 16.834597            0           0           0  
      8.418968  3.279716 19.453416            0           0           0  
      7.019252  0.827955 19.152685            0           0           0  
     11.241901  3.260795 19.142475            0           0           0  
      9.828414  0.827118 19.148587            0           0           0  
     11.214344  8.093264 12.289255            0           0           0  
      9.812544  5.665275 12.289255            0           0           0  
     14.017944  8.093264 12.289255            0           0           0  
     12.616144  5.665275 12.289255            0           0           0  
     14.018056  6.474669 14.578180            0           0           0  
     15.419856  8.902658 14.578180            0           0           0  
     11.214456  6.474669 14.578180            0           0           0  
     12.616256  8.902658 14.578180            0           0           0  
     11.217975  4.864426 16.847580            0           0           0  
     12.617390  7.294135 16.847070            0           0           0  
     14.020271  4.860315 16.845378            0           0           0  
     15.422900  7.295542 16.847082            0           0           0  
     11.222553  8.119365 19.144256            0           0           0  
      9.832896  5.705255 19.150976            0           0           0  
     14.028446  8.118477 19.146712            0           0           0  
     12.630896  5.690296 19.145909            0           0           0  
      7.528917  3.733859 22.138824    -0.580929    0.549394   -0.330789  
      8.443296  3.396051 21.434152    -0.440277    0.058936   -0.010427  
      9.445187  3.111531 21.836916    -0.194353   -0.096538    0.082150  
 
   9 f  =    1.416335 THz     8.899096 2PiTHz   47.243854 cm-1     5.857494 meV
             X         Y         Z           dx          dy          dz
      2.803544  3.237286 12.289255            0           0           0  
      1.401744  0.809297 12.289255            0           0           0  
      5.607144  3.237286 12.289255            0           0           0  
      4.205344  0.809297 12.289255            0           0           0  
      5.607256  1.618692 14.578180            0           0           0  
      7.009056  4.046680 14.578180            0           0           0  
      2.803656  1.618692 14.578180            0           0           0  
      4.205456  4.046680 14.578180            0           0           0  
      2.806843  0.007166 16.841702            0           0           0  
      4.217834  2.435579 16.836370            0           0           0  
      5.617253  0.017835 16.841621            0           0           0  
      7.041785  2.456385 16.898694            0           0           0  
      2.815451  3.254818 19.143198            0           0           0  
      1.411138  0.835020 19.143122            0           0           0  
      5.606472  3.259338 19.144305            0           0           0  
      4.220327  0.833243 19.142144            0           0           0  
      5.607144  8.093264 12.289255            0           0           0  
      4.205344  5.665275 12.289255            0           0           0  
      8.410744  8.093264 12.289255            0           0           0  
      7.008944  5.665275 12.289255            0           0           0  
      8.410856  6.474669 14.578180            0           0           0  
      9.812656  8.902658 14.578180            0           0           0  
      5.607256  6.474669 14.578180            0           0           0  
      7.009056  8.902658 14.578180            0           0           0  
      5.609712  4.864435 16.844744            0           0           0  
      7.014257  7.286817 16.834846            0           0           0  
      8.416194  4.839491 16.899971            0           0           0  
      9.812413  7.284935 16.838665            0           0           0  
      5.621444  8.120051 19.143538            0           0           0  
      4.212227  5.689224 19.142997            0           0           0  
      8.421798  8.119283 19.142433            0           0           0  
      7.008533  5.705874 19.140684            0           0           0  
      8.410744  3.237286 12.289255            0           0           0  
      7.008944  0.809297 12.289255            0           0           0  
     11.214344  3.237286 12.289255            0           0           0  
      9.812544  0.809297 12.289255            0           0           0  
     11.214456  1.618692 14.578180            0           0           0  
     12.616256  4.046680 14.578180            0           0           0  
      8.410856  1.618692 14.578180            0           0           0  
      9.812656  4.046680 14.578180            0           0           0  
      8.413316  0.012487 16.847996            0           0           0  
      9.791342  2.455972 16.896704            0           0           0  
     11.211357  0.017055 16.840330            0           0           0  
     12.612941  2.433341 16.834597            0           0           0  
      8.418968  3.279716 19.453416            0           0           0  
      7.019252  0.827955 19.152685            0           0           0  
     11.241901  3.260795 19.142475            0           0           0  
      9.828414  0.827118 19.148587            0           0           0  
     11.214344  8.093264 12.289255            0           0           0  
      9.812544  5.665275 12.289255            0           0           0  
     14.017944  8.093264 12.289255            0           0           0  
     12.616144  5.665275 12.289255            0           0           0  
     14.018056  6.474669 14.578180            0           0           0  
     15.419856  8.902658 14.578180            0           0           0  
     11.214456  6.474669 14.578180            0           0           0  
     12.616256  8.902658 14.578180            0           0           0  
     11.217975  4.864426 16.847580            0           0           0  
     12.617390  7.294135 16.847070            0           0           0  
     14.020271  4.860315 16.845378            0           0           0  
     15.422900  7.295542 16.847082            0           0           0  
     11.222553  8.119365 19.144256            0           0           0  
      9.832896  5.705255 19.150976            0           0           0  
     14.028446  8.118477 19.146712            0           0           0  
     12.630896  5.690296 19.145909            0           0           0  
      7.528917  3.733859 22.138824     0.567305    0.743246    0.087626  
      8.443296  3.396051 21.434152     0.164991   -0.102686    0.010165  
      9.445187  3.111531 21.836916    -0.015807   -0.282307   -0.015963  
 
 Finite differences POTIM=  1.500000000000000E-002
     LOOP+:  cpu time   59.8282: real time   59.9911
    4ORBIT:  cpu time    0.0000: real time    0.0000

 total amount of memory used by VASP MPI-rank0   103870. kBytes
=======================================================================

   base      :      30000. kBytes
   nonlr-proj:       3435. kBytes
   fftplans  :       2761. kBytes
   grid      :       5191. kBytes
   one-center:         77. kBytes
   wavefun   :      62406. kBytes
 
  
  
 General timing and accounting informations for this job:
 ========================================================
  
                  Total CPU time used (sec):     1545.964
                            User time (sec):     1545.215
                          System time (sec):        0.749
                         Elapsed time (sec):     1550.759
  
                   Maximum memory used (kb):      502108.
                   Average memory used (kb):           0.
  
                          Minor page faults:       178904
                          Major page faults:            0
                 Voluntary context switches:         3108
