 running on   64 total cores
 distrk:  each k-point on   64 cores,    1 groups
 distr:  one band on   16 cores,    4 groups
 using from now: INCAR     
 vasp.5.4.4.18Apr17-6-g9f103f2a35 (build May 23 2022 10:35:18) complex          
  
 POSCAR found type information on POSCAR  Pt O  C  H 
 POSCAR found :  4 types and      67 ions
 scaLAPACK will be used
 LDA part: xc-table for Pade appr. of Perdew
 POSCAR found type information on POSCAR  Pt O  C  H 
 POSCAR found :  4 types and      67 ions
 POSCAR, INCAR and KPOINTS ok, starting setup
 FFT: planning ...
 WAVECAR not read
 entering main loop
       N       E                     dE             d eps       ncg     rms          rms(c)
DAV:   1     0.425446896899E+04    0.42545E+04   -0.23773E+05  7928   0.112E+03
DAV:   2    -0.275350713101E+02   -0.42820E+04   -0.39472E+04  9856   0.255E+02
DAV:   3    -0.398732175822E+03   -0.37120E+03   -0.33979E+03  9008   0.722E+01
DAV:   4    -0.416779930017E+03   -0.18048E+02   -0.16697E+02 10592   0.143E+01
DAV:   5    -0.417284437616E+03   -0.50451E+00   -0.49804E+00  9792   0.246E+00    0.820E+01
RMM:   6    -0.404158041834E+03    0.13126E+02   -0.80511E+01  7868   0.140E+01    0.620E+01
RMM:   7    -0.479910444597E+03   -0.75752E+02   -0.15414E+02  7857   0.145E+01    0.766E+01
RMM:   8    -0.408256515907E+03    0.71654E+02   -0.55459E+01  7877   0.952E+00    0.392E+01
RMM:   9    -0.444436568131E+03   -0.36180E+02   -0.47159E+01  7866   0.790E+00    0.569E+01
RMM:  10    -0.409383767792E+03    0.35053E+02   -0.28517E+01  7862   0.609E+00    0.386E+01
RMM:  11    -0.395343090518E+03    0.14041E+02   -0.74132E+00  7872   0.348E+00    0.211E+01
RMM:  12    -0.392558473983E+03    0.27846E+01   -0.39101E+00  7875   0.248E+00    0.155E+01
RMM:  13    -0.391301706945E+03    0.12568E+01   -0.20690E+00  7885   0.173E+00    0.109E+01
RMM:  14    -0.390236121285E+03    0.10656E+01   -0.10111E+00  7884   0.119E+00    0.704E+00
RMM:  15    -0.389953152052E+03    0.28297E+00   -0.39822E-01  7887   0.744E-01    0.441E+00
RMM:  16    -0.389928251814E+03    0.24900E-01   -0.98559E-02  7906   0.375E-01    0.398E+00
RMM:  17    -0.389942638490E+03   -0.14387E-01   -0.71814E-02  7885   0.337E-01    0.395E+00
RMM:  18    -0.389941804567E+03    0.83392E-03   -0.97363E-02  7882   0.394E-01    0.359E+00
RMM:  19    -0.389855560135E+03    0.86244E-01   -0.12862E-01  7890   0.438E-01    0.176E+00
RMM:  20    -0.389846308436E+03    0.92517E-02   -0.28831E-02  7882   0.201E-01    0.111E+00
RMM:  21    -0.389845988699E+03    0.31974E-03   -0.88341E-03  7987   0.111E-01    0.872E-01
RMM:  22    -0.389843529344E+03    0.24594E-02   -0.26634E-03  7926   0.634E-02    0.652E-01
RMM:  23    -0.389840995376E+03    0.25340E-02   -0.14710E-03  7879   0.471E-02    0.483E-01
RMM:  24    -0.389839114886E+03    0.18805E-02   -0.14536E-03  7877   0.439E-02    0.253E-01
RMM:  25    -0.389839037807E+03    0.77079E-04   -0.34216E-04  7899   0.223E-02    0.223E-01
RMM:  26    -0.389838943777E+03    0.94030E-04   -0.21634E-04  7846   0.173E-02    0.178E-01
RMM:  27    -0.389838864112E+03    0.79665E-04   -0.24944E-04  7846   0.180E-02    0.112E-01
RMM:  28    -0.389838918005E+03   -0.53893E-04   -0.21800E-04  7784   0.159E-02    0.626E-02
RMM:  29    -0.389839019896E+03   -0.10189E-03   -0.52739E-05  6007   0.832E-03    0.290E-02
RMM:  30    -0.389839126508E+03   -0.10661E-03   -0.17230E-05  4484   0.499E-03    0.343E-02
RMM:  31    -0.389839329281E+03   -0.20277E-03   -0.22239E-05  4683   0.529E-03    0.332E-02
RMM:  32    -0.389839464078E+03   -0.13480E-03   -0.13200E-05  4415   0.417E-03    0.198E-02
RMM:  33    -0.389839600997E+03   -0.13692E-03   -0.86297E-06  4353   0.315E-03    0.142E-02
RMM:  34    -0.389839748797E+03   -0.14780E-03   -0.82756E-06  4333   0.281E-03    0.162E-02
RMM:  35    -0.389839869706E+03   -0.12091E-03   -0.68772E-06  4175   0.243E-03    0.118E-02
RMM:  36    -0.389839953612E+03   -0.83907E-04   -0.46786E-06  3538   0.198E-03    0.130E-02
RMM:  37    -0.389840009311E+03   -0.55699E-04   -0.30290E-06  3198   0.171E-03    0.101E-02
RMM:  38    -0.389840065825E+03   -0.56514E-04   -0.27165E-06  3362   0.171E-03    0.299E-03
RMM:  39    -0.389840105240E+03   -0.39415E-04   -0.16169E-06  2612   0.141E-03    0.310E-03
RMM:  40    -0.389840138281E+03   -0.33041E-04   -0.14259E-06  2656   0.137E-03    0.284E-03
RMM:  41    -0.389840152846E+03   -0.14565E-04   -0.42124E-07  1314   0.102E-03    0.209E-03
RMM:  42    -0.389840171968E+03   -0.19122E-04   -0.56219E-07  1888   0.119E-03    0.103E-03
RMM:  43    -0.389840182232E+03   -0.10264E-04   -0.24288E-07  1422   0.107E-03    0.762E-04
RMM:  44    -0.389840191649E+03   -0.94166E-05   -0.29026E-07  1537   0.106E-03
   1 F= -.38984019E+03 E0= -.38982631E+03  d E =-.416480E-01
 Finite differences POTIM= 0.01500 DOF=   9
 bond charge predicted
       N       E                     dE             d eps       ncg     rms          rms(c)
DAV:   1    -0.389832154050E+03    0.80282E-02   -0.12685E+00  7936   0.151E+00    0.250E-01
RMM:   2    -0.389834089642E+03   -0.19356E-02   -0.25171E-02  7824   0.159E-01    0.132E-01
RMM:   3    -0.389834347433E+03   -0.25779E-03   -0.11085E-03  8242   0.328E-02    0.251E-01
RMM:   4    -0.389834314482E+03    0.32951E-04   -0.29392E-04  7851   0.199E-02    0.257E-01
RMM:   5    -0.389834154880E+03    0.15960E-03   -0.35981E-04  7841   0.236E-02    0.199E-01
RMM:   6    -0.389833920794E+03    0.23409E-03   -0.17365E-04  7805   0.172E-02    0.781E-02
RMM:   7    -0.389833885584E+03    0.35210E-04   -0.48362E-05  6242   0.902E-03    0.411E-02
RMM:   8    -0.389833882189E+03    0.33954E-05   -0.19738E-05  4398   0.604E-03
   2 F= -.38983388E+03 E0= -.38981997E+03  d E =-.417317E-01
 Finite differences progress:
  Degree of freedom:   1/  9
  Displacement:        1/  2
  Total:               1/ 18
 bond charge predicted
       N       E                     dE             d eps       ncg     rms          rms(c)
DAV:   1    -0.389827660125E+03    0.62255E-02   -0.50240E+00  7936   0.297E+00    0.503E-01
RMM:   2    -0.389836159216E+03   -0.84991E-02   -0.10834E-01  7897   0.329E-01    0.275E-01
RMM:   3    -0.389837002815E+03   -0.84360E-03   -0.50243E-03  8066   0.771E-02    0.516E-01
RMM:   4    -0.389836772883E+03    0.22993E-03   -0.17340E-03  7898   0.525E-02    0.463E-01
RMM:   5    -0.389838516929E+03   -0.17440E-02   -0.12478E-03  7867   0.395E-02    0.686E-01
RMM:   6    -0.389835615529E+03    0.29014E-02   -0.10024E-03  7858   0.402E-02    0.205E-01
RMM:   7    -0.389835328719E+03    0.28681E-03   -0.36380E-04  7852   0.248E-02    0.913E-02
RMM:   8    -0.389835343079E+03   -0.14360E-04   -0.12447E-04  7821   0.135E-02    0.889E-02
RMM:   9    -0.389835291497E+03    0.51582E-04   -0.56622E-05  6669   0.967E-03    0.342E-02
RMM:  10    -0.389835295789E+03   -0.42924E-05   -0.14506E-05  4353   0.519E-03
   3 F= -.38983530E+03 E0= -.38982143E+03  d E =-.416035E-01
 Finite differences progress:
  Degree of freedom:   1/  9
  Displacement:        2/  2
  Total:               2/ 18
 bond charge predicted
       N       E                     dE             d eps       ncg     rms          rms(c)
DAV:   1    -0.389835955674E+03   -0.66418E-03   -0.24280E+00  7952   0.218E+00    0.255E-01
RMM:   2    -0.389839255549E+03   -0.32999E-02   -0.38913E-02  7888   0.202E-01    0.174E-01
RMM:   3    -0.389841906533E+03   -0.26510E-02   -0.19144E-03  7895   0.524E-02    0.635E-01
RMM:   4    -0.389840187636E+03    0.17189E-02   -0.83489E-04  7891   0.341E-02    0.401E-01
RMM:   5    -0.389839200999E+03    0.98664E-03   -0.52169E-04  7852   0.283E-02    0.148E-01
RMM:   6    -0.389839398484E+03   -0.19749E-03   -0.40099E-04  7858   0.251E-02    0.179E-01
RMM:   7    -0.389839177309E+03    0.22117E-03   -0.18091E-04  7808   0.175E-02    0.571E-02
RMM:   8    -0.389839153884E+03    0.23425E-04   -0.31533E-05  5099   0.748E-03    0.244E-02
RMM:   9    -0.389839154021E+03   -0.13707E-06   -0.83819E-06  4150   0.404E-03
   4 F= -.38983915E+03 E0= -.38982526E+03  d E =-.416680E-01
 Finite differences progress:
  Degree of freedom:   2/  9
  Displacement:        1/  2
  Total:               3/ 18
 bond charge predicted
       N       E                     dE             d eps       ncg     rms          rms(c)
DAV:   1    -0.389833920963E+03    0.52329E-02   -0.48270E+00  7864   0.303E+00    0.357E-01
RMM:   2    -0.389839808877E+03   -0.58879E-02   -0.71531E-02  7885   0.268E-01    0.236E-01
RMM:   3    -0.389844442097E+03   -0.46332E-02   -0.34406E-03  7887   0.698E-02    0.858E-01
RMM:   4    -0.389841376404E+03    0.30657E-02   -0.15348E-03  7887   0.465E-02    0.541E-01
RMM:   5    -0.389839658546E+03    0.17179E-02   -0.92257E-04  7876   0.372E-02    0.225E-01
RMM:   6    -0.389839595709E+03    0.62837E-04   -0.47961E-04  7847   0.273E-02    0.143E-01
RMM:   7    -0.389839461790E+03    0.13392E-03   -0.17053E-04  7817   0.169E-02    0.736E-02
RMM:   8    -0.389839433767E+03    0.28023E-04   -0.40535E-05  5549   0.843E-03    0.418E-02
RMM:   9    -0.389839426378E+03    0.73889E-05   -0.11939E-05  4194   0.495E-03
   5 F= -.38983943E+03 E0= -.38982556E+03  d E =-.415960E-01
 Finite differences progress:
  Degree of freedom:   2/  9
  Displacement:        2/  2
  Total:               4/ 18
 bond charge predicted
       N       E                     dE             d eps       ncg     rms          rms(c)
DAV:   1    -0.389833513020E+03    0.59207E-02   -0.24570E+00  7864   0.210E+00    0.307E-01
RMM:   2    -0.389837484932E+03   -0.39719E-02   -0.48334E-02  7885   0.219E-01    0.202E-01
RMM:   3    -0.389841157348E+03   -0.36724E-02   -0.31009E-03  7971   0.643E-02    0.740E-01
RMM:   4    -0.389838618688E+03    0.25387E-02   -0.12122E-03  7883   0.409E-02    0.469E-01
RMM:   5    -0.389837185944E+03    0.14327E-02   -0.74300E-04  7859   0.336E-02    0.153E-01
RMM:   6    -0.389837366638E+03   -0.18069E-03   -0.50906E-04  7866   0.282E-02    0.206E-01
RMM:   7    -0.389837116958E+03    0.24968E-03   -0.24602E-04  7833   0.201E-02    0.892E-02
RMM:   8    -0.389837063730E+03    0.53228E-04   -0.62540E-05  6851   0.104E-02    0.403E-02
RMM:   9    -0.389837066146E+03   -0.24164E-05   -0.21059E-05  4430   0.624E-03
   6 F= -.38983707E+03 E0= -.38982317E+03  d E =-.416892E-01
 Finite differences progress:
  Degree of freedom:   3/  9
  Displacement:        1/  2
  Total:               5/ 18
 bond charge predicted
       N       E                     dE             d eps       ncg     rms          rms(c)
DAV:   1    -0.389828927419E+03    0.81363E-02   -0.50703E+00  7856   0.307E+00    0.408E-01
RMM:   2    -0.389837112537E+03   -0.81851E-02   -0.92234E-02  7897   0.304E-01    0.301E-01
RMM:   3    -0.389840833156E+03   -0.37206E-02   -0.61225E-03  8032   0.899E-02    0.819E-01
RMM:   4    -0.389841306732E+03   -0.47358E-03   -0.24758E-03  7910   0.598E-02    0.836E-01
RMM:   5    -0.389836561225E+03    0.47455E-02   -0.12374E-03  7876   0.418E-02    0.248E-01
RMM:   6    -0.389836515144E+03    0.46081E-04   -0.90788E-04  7869   0.371E-02    0.194E-01
RMM:   7    -0.389836346477E+03    0.16867E-03   -0.43677E-04  7862   0.269E-02    0.142E-01
RMM:   8    -0.389836244403E+03    0.10207E-03   -0.13679E-04  7811   0.151E-02    0.777E-02
RMM:   9    -0.389836212666E+03    0.31736E-04   -0.42136E-05  5621   0.859E-03    0.342E-02
RMM:  10    -0.389836219416E+03   -0.67493E-05   -0.22944E-05  4380   0.638E-03
   7 F= -.38983622E+03 E0= -.38982233E+03  d E =-.416568E-01
 Finite differences progress:
  Degree of freedom:   3/  9
  Displacement:        2/  2
  Total:               6/ 18
 bond charge predicted
       N       E                     dE             d eps       ncg     rms          rms(c)
DAV:   1    -0.389830055520E+03    0.61571E-02   -0.20336E+00  7888   0.177E+00    0.363E-01
RMM:   2    -0.389834313346E+03   -0.42578E-02   -0.54603E-02  7896   0.244E-01    0.254E-01
RMM:   3    -0.389838491412E+03   -0.41781E-02   -0.45976E-03  7996   0.759E-02    0.815E-01
RMM:   4    -0.389836068065E+03    0.24233E-02   -0.17576E-03  7905   0.490E-02    0.591E-01
RMM:   5    -0.389834065900E+03    0.20022E-02   -0.13439E-03  7875   0.447E-02    0.298E-01
RMM:   6    -0.389833691751E+03    0.37415E-03   -0.70994E-04  7870   0.329E-02    0.176E-01
RMM:   7    -0.389833555026E+03    0.13673E-03   -0.32620E-04  7834   0.226E-02    0.119E-01
RMM:   8    -0.389833449993E+03    0.10503E-03   -0.10305E-04  7667   0.134E-02    0.514E-02
RMM:   9    -0.389833442229E+03    0.77643E-05   -0.25751E-05  4566   0.690E-03
   8 F= -.38983344E+03 E0= -.38981955E+03  d E =-.416618E-01
 Finite differences progress:
  Degree of freedom:   4/  9
  Displacement:        1/  2
  Total:               7/ 18
 bond charge predicted
       N       E                     dE             d eps       ncg     rms          rms(c)
DAV:   1    -0.389829966576E+03    0.34834E-02   -0.20830E+00  7840   0.148E+00    0.463E-01
RMM:   2    -0.389832914625E+03   -0.29480E-02   -0.47562E-02  7876   0.251E-01    0.340E-01
RMM:   3    -0.389838935125E+03   -0.60205E-02   -0.58665E-03  7919   0.907E-02    0.101E+00
RMM:   4    -0.389840972878E+03   -0.20378E-02   -0.42187E-03  7892   0.746E-02    0.111E+00
RMM:   5    -0.389832584481E+03    0.83884E-02   -0.24572E-03  7885   0.604E-02    0.348E-01
RMM:   6    -0.389831955567E+03    0.62891E-03   -0.10919E-03  7882   0.413E-02    0.158E-01
RMM:   7    -0.389831822654E+03    0.13291E-03   -0.33603E-04  7846   0.232E-02    0.105E-01
RMM:   8    -0.389831779743E+03    0.42911E-04   -0.11255E-04  7795   0.134E-02    0.867E-02
RMM:   9    -0.389831739424E+03    0.40319E-04   -0.40903E-05  5661   0.833E-03    0.389E-02
RMM:  10    -0.389831733598E+03    0.58261E-05   -0.19194E-05  4353   0.611E-03
   9 F= -.38983173E+03 E0= -.38981782E+03  d E =-.417360E-01
 Finite differences progress:
  Degree of freedom:   4/  9
  Displacement:        2/  2
  Total:               8/ 18
 bond charge predicted
       N       E                     dE             d eps       ncg     rms          rms(c)
DAV:   1    -0.389836792561E+03   -0.50531E-02   -0.91376E-01  7840   0.949E-01    0.229E-01
RMM:   2    -0.389837648606E+03   -0.85605E-03   -0.12400E-02  7860   0.126E-01    0.152E-01
RMM:   3    -0.389838276410E+03   -0.62780E-03   -0.13055E-03  7896   0.430E-02    0.289E-01
RMM:   4    -0.389838769371E+03   -0.49296E-03   -0.69460E-04  7877   0.321E-02    0.397E-01
RMM:   5    -0.389837890272E+03    0.87910E-03   -0.33024E-04  7835   0.208E-02    0.192E-01
RMM:   6    -0.389837696428E+03    0.19384E-03   -0.18740E-04  7824   0.172E-02    0.906E-02
RMM:   7    -0.389837672460E+03    0.23968E-04   -0.73946E-05  7470   0.109E-02    0.669E-02
RMM:   8    -0.389837646714E+03    0.25746E-04   -0.26351E-05  4574   0.695E-03    0.272E-02
RMM:   9    -0.389837642773E+03    0.39410E-05   -0.83419E-06  4130   0.424E-03
  10 F= -.38983764E+03 E0= -.38982376E+03  d E =-.416464E-01
 Finite differences progress:
  Degree of freedom:   5/  9
  Displacement:        1/  2
  Total:               9/ 18
 bond charge predicted
       N       E                     dE             d eps       ncg     rms          rms(c)
DAV:   1    -0.389837533057E+03    0.11366E-03   -0.17889E+00  7840   0.133E+00    0.305E-01
RMM:   2    -0.389838914843E+03   -0.13818E-02   -0.20384E-02  7871   0.163E-01    0.209E-01
RMM:   3    -0.389846346229E+03   -0.74314E-02   -0.26978E-03  7892   0.605E-02    0.101E+00
RMM:   4    -0.389839438342E+03    0.69079E-02   -0.13273E-03  7876   0.425E-02    0.305E-01
RMM:   5    -0.389839199550E+03    0.23879E-03   -0.86516E-04  7867   0.369E-02    0.226E-01
RMM:   6    -0.389838985362E+03    0.21419E-03   -0.36715E-04  7843   0.239E-02    0.134E-01
RMM:   7    -0.389838910963E+03    0.74399E-04   -0.16050E-04  7816   0.161E-02    0.774E-02
RMM:   8    -0.389838873510E+03    0.37453E-04   -0.53369E-05  6550   0.957E-03    0.365E-02
RMM:   9    -0.389838868266E+03    0.52438E-05   -0.14011E-05  4251   0.519E-03
  11 F= -.38983887E+03 E0= -.38982497E+03  d E =-.416951E-01
 Finite differences progress:
  Degree of freedom:   5/  9
  Displacement:        2/  2
  Total:              10/ 18
 bond charge predicted
       N       E                     dE             d eps       ncg     rms          rms(c)
DAV:   1    -0.389833734069E+03    0.51394E-02   -0.97685E-01  7840   0.104E+00    0.348E-01
RMM:   2    -0.389835199823E+03   -0.14658E-02   -0.23744E-02  7887   0.175E-01    0.325E-01
RMM:   3    -0.389840896928E+03   -0.56971E-02   -0.25689E-03  7885   0.591E-02    0.968E-01
RMM:   4    -0.389834827903E+03    0.60690E-02   -0.14295E-03  7882   0.445E-02    0.295E-01
RMM:   5    -0.389835452368E+03   -0.62446E-03   -0.16949E-03  7880   0.515E-02    0.418E-01
RMM:   6    -0.389834412638E+03    0.10397E-02   -0.82289E-04  7878   0.364E-02    0.182E-01
RMM:   7    -0.389834253961E+03    0.15868E-03   -0.27265E-04  7840   0.208E-02    0.107E-01
RMM:   8    -0.389834171570E+03    0.82391E-04   -0.91980E-05  7534   0.123E-02    0.455E-02
RMM:   9    -0.389834163536E+03    0.80336E-05   -0.33234E-05  5254   0.744E-03
  12 F= -.38983416E+03 E0= -.38982035E+03  d E =-.414496E-01
 Finite differences progress:
  Degree of freedom:   6/  9
  Displacement:        1/  2
  Total:              11/ 18
 bond charge predicted
       N       E                     dE             d eps       ncg     rms          rms(c)
DAV:   1    -0.389835105556E+03   -0.93399E-03   -0.20145E+00  7840   0.148E+00    0.591E-01
RMM:   2    -0.389838734109E+03   -0.36286E-02   -0.56828E-02  7889   0.281E-01    0.540E-01
RMM:   3    -0.389854919285E+03   -0.16185E-01   -0.73295E-03  7881   0.101E-01    0.161E+00
RMM:   4    -0.389838424814E+03    0.16494E-01   -0.40726E-03  7901   0.748E-02    0.536E-01
RMM:   5    -0.389839833233E+03   -0.14084E-02   -0.44195E-03  7882   0.824E-02    0.714E-01
RMM:   6    -0.389836681009E+03    0.31522E-02   -0.21908E-03  7887   0.592E-02    0.289E-01
RMM:   7    -0.389836311197E+03    0.36981E-03   -0.74920E-04  7874   0.342E-02    0.182E-01
RMM:   8    -0.389836087935E+03    0.22326E-03   -0.28441E-04  7843   0.215E-02    0.814E-02
RMM:   9    -0.389836067612E+03    0.20323E-04   -0.10739E-04  7782   0.131E-02    0.579E-02
RMM:  10    -0.389836064105E+03    0.35067E-05   -0.29121E-05  4774   0.739E-03
  13 F= -.38983606E+03 E0= -.38982216E+03  d E =-.417204E-01
 Finite differences progress:
  Degree of freedom:   6/  9
  Displacement:        2/  2
  Total:              12/ 18
 bond charge predicted
       N       E                     dE             d eps       ncg     rms          rms(c)
DAV:   1    -0.389837147597E+03   -0.10800E-02   -0.53753E-01  7888   0.809E-01    0.304E-01
RMM:   2    -0.389838139084E+03   -0.99149E-03   -0.15595E-02  7888   0.144E-01    0.332E-01
RMM:   3    -0.389844016113E+03   -0.58770E-02   -0.21520E-03  7896   0.534E-02    0.981E-01
RMM:   4    -0.389837624206E+03    0.63919E-02   -0.13950E-03  7883   0.445E-02    0.246E-01
RMM:   5    -0.389838177305E+03   -0.55310E-03   -0.11815E-03  7880   0.429E-02    0.361E-01
RMM:   6    -0.389837442790E+03    0.73452E-03   -0.59617E-04  7862   0.309E-02    0.165E-01
RMM:   7    -0.389837324793E+03    0.11800E-03   -0.19988E-04  7823   0.175E-02    0.943E-02
RMM:   8    -0.389837261319E+03    0.63473E-04   -0.69697E-05  6893   0.107E-02    0.304E-02
RMM:   9    -0.389837264843E+03   -0.35234E-05   -0.21320E-05  4433   0.635E-03
  14 F= -.38983726E+03 E0= -.38982339E+03  d E =-.416370E-01
 Finite differences progress:
  Degree of freedom:   7/  9
  Displacement:        1/  2
  Total:              13/ 18
 bond charge predicted
       N       E                     dE             d eps       ncg     rms          rms(c)
DAV:   1    -0.389838635585E+03   -0.13743E-02   -0.33916E-01  7960   0.500E-01    0.261E-01
RMM:   2    -0.389838433760E+03    0.20183E-03   -0.83813E-03  7879   0.772E-02    0.239E-01
RMM:   3    -0.389844790762E+03   -0.63570E-02   -0.18843E-03  7912   0.478E-02    0.974E-01
RMM:   4    -0.389839068662E+03    0.57221E-02   -0.14122E-03  7887   0.438E-02    0.420E-01
RMM:   5    -0.389838097981E+03    0.97068E-03   -0.67843E-04  7887   0.327E-02    0.131E-01
RMM:   6    -0.389838063350E+03    0.34632E-04   -0.28451E-04  7859   0.207E-02    0.961E-02
RMM:   7    -0.389838009742E+03    0.53608E-04   -0.11161E-04  7772   0.136E-02    0.648E-02
RMM:   8    -0.389837985803E+03    0.23939E-04   -0.31150E-05  4983   0.735E-03    0.413E-02
RMM:   9    -0.389837979762E+03    0.60410E-05   -0.94508E-06  4158   0.436E-03
  15 F= -.38983798E+03 E0= -.38982412E+03  d E =-.415855E-01
 Finite differences progress:
  Degree of freedom:   7/  9
  Displacement:        2/  2
  Total:              14/ 18
 bond charge predicted
       N       E                     dE             d eps       ncg     rms          rms(c)
DAV:   1    -0.389839692235E+03   -0.17064E-02   -0.14986E-01  7904   0.339E-01    0.150E-01
RMM:   2    -0.389839756188E+03   -0.63953E-04   -0.23241E-03  7684   0.383E-02    0.153E-01
RMM:   3    -0.389841441918E+03   -0.16857E-02   -0.50758E-04  7843   0.247E-02    0.509E-01
RMM:   4    -0.389839909865E+03    0.15321E-02   -0.46057E-04  7856   0.255E-02    0.219E-01
RMM:   5    -0.389839632846E+03    0.27702E-03   -0.22396E-04  7821   0.189E-02    0.741E-02
RMM:   6    -0.389839628020E+03    0.48268E-05   -0.69277E-05  7078   0.103E-02
  16 F= -.38983963E+03 E0= -.38982582E+03  d E =-.414365E-01
 Finite differences progress:
  Degree of freedom:   8/  9
  Displacement:        1/  2
  Total:              15/ 18
 bond charge predicted
       N       E                     dE             d eps       ncg     rms          rms(c)
DAV:   1    -0.389840134568E+03   -0.50172E-03   -0.28905E-01  7856   0.479E-01    0.196E-01
RMM:   2    -0.389840382554E+03   -0.24799E-03   -0.36709E-03  7870   0.523E-02    0.217E-01
RMM:   3    -0.389842624563E+03   -0.22420E-02   -0.83452E-04  7844   0.326E-02    0.596E-01
RMM:   4    -0.389840930470E+03    0.16941E-02   -0.83626E-04  7857   0.335E-02    0.351E-01
RMM:   5    -0.389840194438E+03    0.73603E-03   -0.53935E-04  7853   0.288E-02    0.141E-01
RMM:   6    -0.389840099578E+03    0.94860E-04   -0.14477E-04  7836   0.151E-02    0.637E-02
RMM:   7    -0.389840084967E+03    0.14612E-04   -0.48178E-05  6184   0.874E-03    0.418E-02
RMM:   8    -0.389840071894E+03    0.13073E-04   -0.14709E-05  4227   0.556E-03    0.177E-02
RMM:   9    -0.389840070358E+03    0.15356E-05   -0.30804E-06  4042   0.257E-03
  17 F= -.38984007E+03 E0= -.38982619E+03  d E =-.416497E-01
 Finite differences progress:
  Degree of freedom:   8/  9
  Displacement:        2/  2
  Total:              16/ 18
 bond charge predicted
       N       E                     dE             d eps       ncg     rms          rms(c)
DAV:   1    -0.389839092432E+03    0.97946E-03   -0.14750E-01  7856   0.336E-01    0.119E-01
RMM:   2    -0.389839148060E+03   -0.55628E-04   -0.12881E-03  7320   0.314E-02    0.869E-02
RMM:   3    -0.389840549808E+03   -0.14017E-02   -0.41690E-04  7862   0.230E-02    0.448E-01
RMM:   4    -0.389839355526E+03    0.11943E-02   -0.27867E-04  7803   0.194E-02    0.188E-01
RMM:   5    -0.389839170924E+03    0.18460E-03   -0.15555E-04  7804   0.156E-02    0.736E-02
RMM:   6    -0.389839148926E+03    0.21997E-04   -0.49805E-05  5952   0.887E-03    0.405E-02
RMM:   7    -0.389839138271E+03    0.10656E-04   -0.11950E-05  4187   0.494E-03    0.172E-02
RMM:   8    -0.389839136781E+03    0.14893E-05   -0.30048E-06  4091   0.255E-03
  18 F= -.38983914E+03 E0= -.38982526E+03  d E =-.416219E-01
 Finite differences progress:
  Degree of freedom:   9/  9
  Displacement:        1/  2
  Total:              17/ 18
 bond charge predicted
       N       E                     dE             d eps       ncg     rms          rms(c)
DAV:   1    -0.389839584586E+03   -0.44632E-03   -0.30911E-01  7848   0.479E-01    0.171E-01
RMM:   2    -0.389839706067E+03   -0.12148E-03   -0.27800E-03  7625   0.473E-02    0.113E-01
RMM:   3    -0.389841381424E+03   -0.16754E-02   -0.72432E-04  7918   0.298E-02    0.480E-01
RMM:   4    -0.389840000258E+03    0.13812E-02   -0.36468E-04  7831   0.220E-02    0.220E-01
RMM:   5    -0.389839827873E+03    0.17238E-03   -0.29233E-04  7824   0.209E-02    0.141E-01
RMM:   6    -0.389839745312E+03    0.82561E-04   -0.13032E-04  7775   0.141E-02    0.749E-02
RMM:   7    -0.389839709448E+03    0.35864E-04   -0.34388E-05  5280   0.777E-03    0.274E-02
RMM:   8    -0.389839704525E+03    0.49235E-05   -0.83077E-06  4128   0.420E-03
  19 F= -.38983970E+03 E0= -.38982580E+03  d E =-.417119E-01
 Finite differences progress:
  Degree of freedom:   9/  9
  Displacement:        2/  2
  Total:              18/ 18
 Finite differences POTIM=  1.500000000000000E-002
