<?xml version="1.0" encoding="ISO-8859-1"?>
<modeling>
 <generator>
  <i name="program" type="string">vasp </i>
  <i name="version" type="string">5.4.4.18Apr17-6-g9f103f2a35  </i>
  <i name="subversion" type="string">(build May 23 2022 10:35:18) complex            parallel </i>
  <i name="platform" type="string">IFC18_impi </i>
  <i name="date" type="string">2023 06 20 </i>
  <i name="time" type="string">15:33:22 </i>
 </generator>
 <incar>
  <i type="string" name="SYSTEM"> Pt</i>
  <i type="int" name="ISTART">     0</i>
  <i type="string" name="PREC">med   normal | accurate</i>
  <i type="string" name="ALGO">  Fast    Normal, Fast, Very_Fast</i>
  <i type="int" name="ICHARG">     2</i>
  <i type="int" name="INIWAV">     1</i>
  <i type="int" name="NELM">   100</i>
  <i type="int" name="IBRION">     5</i>
  <i type="int" name="NFREE">     2</i>
  <i name="EDIFF">      0.00001000</i>
  <i type="int" name="NSW">     1</i>
  <i type="int" name="ISIF">     1</i>
  <i type="int" name="ISYM">     0</i>
  <i name="ENCUT">    400.00000000</i>
  <i name="POTIM">      0.01500000</i>
  <i type="string" name="LREAL">  Auto     real-space projection (.FALSE</i>
  <i type="int" name="ISMEAR">     1</i>
  <i name="SIGMA">      0.10000000</i>
  <i type="int" name="NWRITE">     2</i>
  <i type="logical" name="LWAVE"> F  </i>
  <i type="logical" name="LCHARG"> F  </i>
  <i type="logical" name="LAECHG"> F  </i>
  <v type="int" name="KPOINT_BSE">    -1     0     0     0</v>
  <i type="int" name="NELM">   100</i>
 </incar>
 <structure name="primitive_cell" >
  <crystal>
   <varray name="basis" >
    <v>      11.21440000       0.00000000       0.00000000 </v>
    <v>       5.60720000       9.71195529       0.00000000 </v>
    <v>       0.00000000       0.00000000      31.44560000 </v>
   </varray>
   <i name="volume">   3424.85826052 </i>
   <varray name="rec_basis" >
    <v>       0.08917107      -0.05148294       0.00000000 </v>
    <v>       0.00000000       0.10296588       0.00000000 </v>
    <v>       0.00000000       0.00000000       0.03180095 </v>
   </varray>
  </crystal>
  <varray name="positions" >
   <v>       0.08333000       0.33333000       0.39081000 </v>
   <v>       0.16667000       0.16667000       0.46360000 </v>
   <v>      -0.08333000       0.41667000       0.46360000 </v>
   <v>       0.16667000       0.41667000       0.46360000 </v>
   <v>       0.33333000       0.08333000       0.39081000 </v>
   <v>      -0.16667000      -0.41667000       0.39081000 </v>
   <v>       0.33333000       0.33333000       0.39081000 </v>
   <v>      -0.16667000       0.33333000       0.39081000 </v>
   <v>       0.08333000       0.08333000       0.39081000 </v>
   <v>       0.08333000      -0.41667000       0.39081000 </v>
   <v>      -0.08333000       0.16667000       0.46360000 </v>
   <v>       0.41667000       0.16667000       0.46360000 </v>
   <v>      -0.08333000      -0.33333000       0.46360000 </v>
   <v>      -0.00056618       0.25055113      -0.46464379 </v>
   <v>       0.25071799       0.25078149      -0.46458742 </v>
   <v>      -0.00002078      -0.49955342      -0.46430094 </v>
   <v>       0.16667000      -0.08333000       0.46360000 </v>
   <v>      -0.33333000       0.41667000       0.46360000 </v>
   <v>       0.41667000      -0.08333000       0.46360000 </v>
   <v>      -0.33333000      -0.33333000       0.46360000 </v>
   <v>       0.33333000      -0.16667000       0.39081000 </v>
   <v>      -0.41667000      -0.41667000       0.39081000 </v>
   <v>      -0.41667000       0.08333000       0.39081000 </v>
   <v>      -0.16667000       0.08333000       0.39081000 </v>
   <v>       0.33333000      -0.41667000       0.39081000 </v>
   <v>      -0.16667000      -0.16667000       0.39081000 </v>
   <v>       0.16667000      -0.33333000       0.46360000 </v>
   <v>       0.41667000       0.41667000       0.46360000 </v>
   <v>       0.24992021       0.00073788      -0.46441787 </v>
   <v>      -0.25011613      -0.49913008      -0.46423093 </v>
   <v>       0.24978862      -0.49912917      -0.46432112 </v>
   <v>       0.08333000      -0.16667000       0.39081000 </v>
   <v>      -0.41667000       0.33333000       0.39081000 </v>
   <v>      -0.41667000      -0.16667000       0.39081000 </v>
   <v>      -0.00114936       0.00175608      -0.46446148 </v>
   <v>       0.49997823       0.00183639      -0.46442043 </v>
   <v>      -0.25041738      -0.24895296      -0.46424715 </v>
   <v>      -0.00031950      -0.24880808      -0.46424677 </v>
   <v>      -0.33333000       0.16667000       0.46360000 </v>
   <v>      -0.08333000      -0.08333000       0.46360000 </v>
   <v>      -0.33333000      -0.08333000       0.46360000 </v>
   <v>      -0.25333627       0.25288134      -0.46266874 </v>
   <v>      -0.49853840       0.25292383      -0.46260546 </v>
   <v>       0.08348913       0.33513523      -0.39122809 </v>
   <v>       0.41667000      -0.33333000       0.46360000 </v>
   <v>      -0.16542304       0.33575062      -0.39125109 </v>
   <v>       0.25032204      -0.24970650      -0.46463588 </v>
   <v>       0.08284342       0.08597852      -0.39123051 </v>
   <v>       0.49993351      -0.24990030      -0.46451445 </v>
   <v>       0.33343322       0.08579564      -0.39126160 </v>
   <v>       0.33213481       0.33560058      -0.39119288 </v>
   <v>      -0.16664266      -0.41409370      -0.39114186 </v>
   <v>       0.08271076      -0.41420402      -0.39123449 </v>
   <v>      -0.49867025       0.49830243      -0.46256484 </v>
   <v>      -0.25041855       0.00128574      -0.46421769 </v>
   <v>       0.33297619      -0.16399089      -0.39125240 </v>
   <v>      -0.16617236       0.08516497      -0.39105670 </v>
   <v>      -0.41671140       0.08525110      -0.39092638 </v>
   <v>      -0.41691352      -0.41255337      -0.39098074 </v>
   <v>       0.33120321      -0.41248968      -0.39130805 </v>
   <v>      -0.16703161      -0.16407390      -0.39111635 </v>
   <v>       0.08322605      -0.16391178      -0.39121727 </v>
   <v>      -0.41728172      -0.16398247      -0.39119445 </v>
   <v>      -0.41812103       0.33769881      -0.38136286 </v>
   <v>      -0.31795334       0.32038149      -0.30556529 </v>
   <v>      -0.42194095       0.34967734      -0.31837358 </v>
   <v>       0.47913154       0.38446010      -0.29596433 </v>
  </varray>
 </structure>
 <varray name="primitive_index" >
  <v type="int" >        1 </v>
  <v type="int" >        7 </v>
  <v type="int" >       38 </v>
  <v type="int" >        8 </v>
  <v type="int" >        4 </v>
  <v type="int" >       52 </v>
  <v type="int" >        3 </v>
  <v type="int" >       35 </v>
  <v type="int" >        2 </v>
  <v type="int" >       18 </v>
  <v type="int" >       37 </v>
  <v type="int" >        5 </v>
  <v type="int" >       53 </v>
  <v type="int" >       44 </v>
  <v type="int" >       10 </v>
  <v type="int" >       59 </v>
  <v type="int" >       24 </v>
  <v type="int" >       40 </v>
  <v type="int" >       22 </v>
  <v type="int" >       55 </v>
  <v type="int" >       19 </v>
  <v type="int" >       50 </v>
  <v type="int" >       34 </v>
  <v type="int" >       36 </v>
  <v type="int" >       20 </v>
  <v type="int" >       51 </v>
  <v type="int" >       23 </v>
  <v type="int" >        6 </v>
  <v type="int" >        9 </v>
  <v type="int" >       57 </v>
  <v type="int" >       25 </v>
  <v type="int" >       17 </v>
  <v type="int" >       33 </v>
  <v type="int" >       49 </v>
  <v type="int" >       43 </v>
  <v type="int" >       11 </v>
  <v type="int" >       58 </v>
  <v type="int" >       60 </v>
  <v type="int" >       39 </v>
  <v type="int" >       54 </v>
  <v type="int" >       56 </v>
  <v type="int" >       42 </v>
  <v type="int" >       12 </v>
  <v type="int" >       13 </v>
  <v type="int" >       21 </v>
  <v type="int" >       47 </v>
  <v type="int" >       26 </v>
  <v type="int" >       14 </v>
  <v type="int" >       28 </v>
  <v type="int" >       16 </v>
  <v type="int" >       15 </v>
  <v type="int" >       64 </v>
  <v type="int" >       30 </v>
  <v type="int" >       27 </v>
  <v type="int" >       41 </v>
  <v type="int" >       31 </v>
  <v type="int" >       48 </v>
  <v type="int" >       46 </v>
  <v type="int" >       62 </v>
  <v type="int" >       32 </v>
  <v type="int" >       63 </v>
  <v type="int" >       29 </v>
  <v type="int" >       61 </v>
  <v type="int" >       45 </v>
  <v type="int" >       67 </v>
  <v type="int" >       66 </v>
  <v type="int" >       65 </v>
 </varray>
 <kpoints>
  <generation param="Gamma">
   <v type="int" name="divisions">       4        4        1 </v>
   <v name="usershift">      0.00000000       0.00000000       0.00000000 </v>
   <v name="genvec1">      0.25000000      -0.00000000       0.00000000 </v>
   <v name="genvec2">      0.00000000       0.25000000       0.00000000 </v>
   <v name="genvec3">      0.00000000       0.00000000       1.00000000 </v>
   <v name="shift">      0.00000000       0.00000000       0.00000000 </v>
  </generation>
  <varray name="kpointlist" >
   <v>       0.00000000       0.00000000       0.00000000 </v>
   <v>       0.25000000       0.00000000       0.00000000 </v>
   <v>       0.50000000       0.00000000       0.00000000 </v>
   <v>       0.00000000       0.25000000       0.00000000 </v>
   <v>       0.25000000       0.25000000       0.00000000 </v>
   <v>       0.50000000       0.25000000       0.00000000 </v>
   <v>      -0.25000000       0.25000000       0.00000000 </v>
   <v>       0.00000000       0.50000000       0.00000000 </v>
   <v>       0.25000000       0.50000000       0.00000000 </v>
   <v>       0.50000000       0.50000000       0.00000000 </v>
  </varray>
  <varray name="weights" >
   <v>       0.06250000 </v>
   <v>       0.12500000 </v>
   <v>       0.06250000 </v>
   <v>       0.12500000 </v>
   <v>       0.12500000 </v>
   <v>       0.12500000 </v>
   <v>       0.12500000 </v>
   <v>       0.06250000 </v>
   <v>       0.12500000 </v>
   <v>       0.06250000 </v>
  </varray>
 </kpoints>
 <parameters>
  <separator name="general" >
   <i type="string" name="SYSTEM">Pt</i>
   <i type="logical" name="LCOMPAT"> F  </i>
  </separator>
  <separator name="electronic" >
   <i type="string" name="PREC">med</i>
   <i name="ENMAX">    400.00000000</i>
   <i name="ENAUG">    644.87300000</i>
   <i name="EDIFF">      0.00001000</i>
   <i type="int" name="IALGO">    68</i>
   <i type="int" name="IWAVPR">    11</i>
   <i type="int" name="NBANDS">   392</i>
   <i name="NELECT">    651.00000000</i>
   <i type="int" name="TURBO">     0</i>
   <i type="int" name="IRESTART">     0</i>
   <i type="int" name="NREBOOT">     0</i>
   <i type="int" name="NMIN">     0</i>
   <i name="EREF">      0.00000000</i>
   <separator name="electronic smearing" >
    <i type="int" name="ISMEAR">     1</i>
    <i name="SIGMA">      0.10000000</i>
    <i name="KSPACING">      0.50000000</i>
    <i type="logical" name="KGAMMA"> T  </i>
   </separator>
   <separator name="electronic projectors" >
    <i type="logical" name="LREAL"> T  </i>
    <v name="ROPT">     -0.00200000     -0.00200000     -0.00200000     -0.00200000</v>
    <i type="int" name="LMAXPAW">  -100</i>
    <i type="int" name="LMAXMIX">     2</i>
    <i type="logical" name="NLSPLINE"> F  </i>
   </separator>
   <separator name="electronic startup" >
    <i type="int" name="ISTART">     0</i>
    <i type="int" name="ICHARG">     2</i>
    <i type="int" name="INIWAV">     1</i>
   </separator>
   <separator name="electronic spin" >
    <i type="int" name="ISPIN">     1</i>
    <i type="logical" name="LNONCOLLINEAR"> F  </i>
    <v name="MAGMOM">      1.00000000      1.00000000      1.00000000      1.00000000      1.00000000      1.00000000      1.00000000      1.00000000      1.00000000      1.00000000      1.00000000      1.00000000      1.00000000      1.00000000      1.00000000      1.00000000      1.00000000      1.00000000      1.00000000      1.00000000
      1.00000000      1.00000000      1.00000000      1.00000000      1.00000000      1.00000000      1.00000000      1.00000000      1.00000000      1.00000000      1.00000000      1.00000000      1.00000000      1.00000000      1.00000000      1.00000000      1.00000000      1.00000000      1.00000000      1.00000000
      1.00000000      1.00000000      1.00000000      1.00000000      1.00000000      1.00000000      1.00000000      1.00000000      1.00000000      1.00000000      1.00000000      1.00000000      1.00000000      1.00000000      1.00000000      1.00000000      1.00000000      1.00000000      1.00000000      1.00000000
      1.00000000      1.00000000      1.00000000      1.00000000      1.00000000      1.00000000      1.00000000</v>
    <i name="NUPDOWN">     -1.00000000</i>
    <i type="logical" name="LSORBIT"> F  </i>
    <v name="SAXIS">      0.00000000      0.00000000      1.00000000</v>
    <i type="logical" name="LSPIRAL"> F  </i>
    <v name="QSPIRAL">      0.00000000      0.00000000      0.00000000</v>
    <i type="logical" name="LZEROZ"> F  </i>
   </separator>
   <separator name="electronic exchange-correlation" >
    <i type="logical" name="LASPH"> F  </i>
    <i type="logical" name="LMETAGGA"> F  </i>
   </separator>
   <separator name="electronic convergence" >
    <i type="int" name="NELM">   100</i>
    <i type="int" name="NELMDL">    -5</i>
    <i type="int" name="NELMIN">     2</i>
    <i name="ENINI">    400.00000000</i>
    <separator name="electronic convergence detail" >
     <i type="logical" name="LDIAG"> T  </i>
     <i type="logical" name="LSUBROT"> F  </i>
     <i name="WEIMIN">      0.00100000</i>
     <i name="EBREAK">      0.00000001</i>
     <i name="DEPER">      0.30000000</i>
     <i type="int" name="NRMM">     4</i>
     <i name="TIME">      0.40000000</i>
    </separator>
   </separator>
   <separator name="electronic mixer" >
    <i name="AMIX">      0.40000000</i>
    <i name="BMIX">      1.00000000</i>
    <i name="AMIN">      0.10000000</i>
    <i name="AMIX_MAG">      1.60000000</i>
    <i name="BMIX_MAG">      1.00000000</i>
    <separator name="electronic mixer details" >
     <i type="int" name="IMIX">     4</i>
     <i type="logical" name="MIXFIRST"> F  </i>
     <i type="int" name="MAXMIX">   -45</i>
     <i name="WC">    100.00000000</i>
     <i type="int" name="INIMIX">     1</i>
     <i type="int" name="MIXPRE">     1</i>
     <i type="int" name="MREMOVE">     5</i>
    </separator>
   </separator>
   <separator name="electronic dipolcorrection" >
    <i type="logical" name="LDIPOL"> F  </i>
    <i type="logical" name="LMONO"> F  </i>
    <i type="int" name="IDIPOL">     0</i>
    <i name="EPSILON">      1.00000000</i>
    <v name="DIPOL">   -100.00000000   -100.00000000   -100.00000000</v>
    <i name="EFIELD">      0.00000000</i>
   </separator>
  </separator>
  <separator name="grids" >
   <i type="int" name="NGX">    56</i>
   <i type="int" name="NGY">    56</i>
   <i type="int" name="NGZ">   160</i>
   <i type="int" name="NGXF">    96</i>
   <i type="int" name="NGYF">    96</i>
   <i type="int" name="NGZF">   270</i>
   <i type="logical" name="ADDGRID"> F  </i>
  </separator>
  <separator name="ionic" >
   <i type="int" name="NSW">   841</i>
   <i type="int" name="IBRION">     5</i>
   <i type="int" name="MDALGO">     0</i>
   <i type="int" name="ISIF">     1</i>
   <i name="PSTRESS">      0.00000000</i>
   <i name="EDIFFG">      0.00010000</i>
   <i type="int" name="NFREE">     2</i>
   <i name="POTIM">      0.01500000</i>
   <i name="SMASS">     -3.00000000</i>
   <i name="SCALEE">      1.00000000</i>
  </separator>
  <separator name="ionic md" >
   <i name="TEBEG">      0.00010000</i>
   <i name="TEEND">      0.00010000</i>
   <i type="int" name="NBLOCK">     1</i>
   <i type="int" name="KBLOCK">   841</i>
   <i type="int" name="NPACO">   256</i>
   <i name="APACO">     16.00000000</i>
  </separator>
  <separator name="symmetry" >
   <i type="int" name="ISYM">     0</i>
   <i name="SYMPREC">      0.00001000</i>
  </separator>
  <separator name="dos" >
   <i type="int" name="LORBIT">     0</i>
   <v name="RWIGS">     -1.00000000     -1.00000000     -1.00000000     -1.00000000</v>
   <i type="int" name="NEDOS">   301</i>
   <i name="EMIN">     10.00000000</i>
   <i name="EMAX">    -10.00000000</i>
   <i name="EFERMI">      0.00000000</i>
  </separator>
  <separator name="writing" >
   <i type="int" name="NWRITE">     2</i>
   <i type="logical" name="LWAVE"> F  </i>
   <i type="logical" name="LDOWNSAMPLE"> F  </i>
   <i type="logical" name="LCHARG"> F  </i>
   <i type="logical" name="LPARD"> F  </i>
   <i type="logical" name="LVTOT"> F  </i>
   <i type="logical" name="LVHAR"> F  </i>
   <i type="logical" name="LELF"> F  </i>
   <i type="logical" name="LOPTICS"> F  </i>
   <v name="STM">      0.00000000      0.00000000      0.00000000      0.00000000      0.00000000      0.00000000      0.00000000</v>
  </separator>
  <separator name="performance" >
   <i type="int" name="NPAR">     4</i>
   <i type="int" name="NSIM">     4</i>
   <i type="int" name="NBLK">    -1</i>
   <i type="logical" name="LPLANE"> T  </i>
   <i type="logical" name="LSCALAPACK"> T  </i>
   <i type="logical" name="LSCAAWARE"> F  </i>
   <i type="logical" name="LSCALU"> F  </i>
   <i type="logical" name="LASYNC"> F  </i>
   <i type="logical" name="LORBITALREAL"> F  </i>
  </separator>
  <separator name="miscellaneous" >
   <i type="int" name="IDIOT">     3</i>
   <i type="int" name="ISPECIAL">     0</i>
   <i type="logical" name="LMUSIC"> F  </i>
   <v name="POMASS">    195.08000000     16.00000000     12.01100000      1.00000000</v>
   <v name="DARWINR">      0.00000000      0.00000000      0.00000000      0.00000000</v>
   <v name="DARWINV">      1.00000000      1.00000000      1.00000000      1.00000000</v>
   <i type="logical" name="LCORR"> T  </i>
  </separator>
  <i type="logical" name="GGA_COMPAT"> T  </i>
  <i type="logical" name="LBERRY"> F  </i>
  <i type="int" name="ICORELEVEL">     0</i>
  <i type="logical" name="LDAU"> F  </i>
  <i type="int" name="I_CONSTRAINED_M">     0</i>
  <separator name="electronic exchange-correlation" >
   <i type="string" name="GGA">--</i>
   <i type="int" name="VOSKOWN">     0</i>
   <i type="logical" name="LHFCALC"> F  </i>
   <i type="string" name="PRECFOCK"></i>
   <i type="logical" name="LSYMGRAD"> F  </i>
   <i type="logical" name="LHFONE"> F  </i>
   <i type="logical" name="LRHFCALC"> F  </i>
   <i type="logical" name="LTHOMAS"> F  </i>
   <i type="logical" name="LMODELHF"> F  </i>
   <i name="ENCUT4O">     -1.00000000</i>
   <i type="int" name="EXXOEP">     0</i>
   <i type="int" name="FOURORBIT">     0</i>
   <i name="AEXX">      0.00000000</i>
   <i name="HFALPHA">      0.00000000</i>
   <i name="MCALPHA">      0.00000000</i>
   <i name="ALDAX">      1.00000000</i>
   <i name="AGGAX">      1.00000000</i>
   <i name="ALDAC">      1.00000000</i>
   <i name="AGGAC">      1.00000000</i>
   <i type="int" name="NKREDX">     1</i>
   <i type="int" name="NKREDY">     1</i>
   <i type="int" name="NKREDZ">     1</i>
   <i type="logical" name="SHIFTRED"> F  </i>
   <i type="logical" name="ODDONLY"> F  </i>
   <i type="logical" name="EVENONLY"> F  </i>
   <i type="int" name="LMAXFOCK">     0</i>
   <i type="int" name="NMAXFOCKAE">     0</i>
   <i type="logical" name="LFOCKAEDFT"> F  </i>
   <i name="HFSCREEN">      0.00000000</i>
   <i name="HFSCREENC">      0.00000000</i>
   <i type="int" name="NBANDSGWLOW">     0</i>
  </separator>
  <separator name="vdW DFT" >
   <i type="logical" name="LUSE_VDW"> F  </i>
   <i name="Zab_VDW">     -0.84910000</i>
   <i name="PARAM1">      0.12340000</i>
   <i name="PARAM2">      1.00000000</i>
   <i name="PARAM3">      0.00000000</i>
  </separator>
  <separator name="model GW" >
   <i type="int" name="MODEL_GW">     0</i>
   <i name="MODEL_EPS0">     30.67037248</i>
   <i name="MODEL_ALPHA">      1.00000000</i>
  </separator>
  <separator name="linear response parameters" >
   <i type="logical" name="LEPSILON"> F  </i>
   <i type="logical" name="LRPA"> F  </i>
   <i type="logical" name="LNABLA"> F  </i>
   <i type="logical" name="LVEL"> F  </i>
   <i type="int" name="KINTER">     0</i>
   <i name="CSHIFT">      0.10000000</i>
   <i name="OMEGAMAX">     -1.00000000</i>
   <i name="DEG_THRESHOLD">      0.00200000</i>
   <i name="RTIME">     -0.10000000</i>
   <i name="WPLASMAI">      0.00000000</i>
   <v name="DFIELD">      0.00000000      0.00000000      0.00000000</v>
   <v name="WPLASMA">      0.00000000      0.00000000      0.00000000      0.00000000      0.00000000      0.00000000      0.00000000      0.00000000      0.00000000</v>
  </separator>
  <separator name="orbital magnetization" >
   <i type="logical" name="NUCIND"> F  </i>
   <v name="MAGPOS">      0.00000000      0.00000000      0.00000000</v>
   <i type="logical" name="LNICSALL"> T  </i>
   <i type="logical" name="ORBITALMAG"> F  </i>
   <i type="logical" name="LMAGBLOCH"> F  </i>
   <i type="logical" name="LCHIMAG"> F  </i>
   <i type="logical" name="LGAUGE"> T  </i>
   <i type="int" name="MAGATOM">     0</i>
   <v name="MAGDIPOL">      0.00000000      0.00000000      0.00000000</v>
   <v name="AVECCONST">      0.00000000      0.00000000      0.00000000</v>
  </separator>
  <separator name="response functions" >
   <i type="logical" name="LADDER"> F  </i>
   <i type="logical" name="LRPAFORCE"> F  </i>
   <i type="logical" name="LFXC"> F  </i>
   <i type="logical" name="LHARTREE"> T  </i>
   <i type="int" name="IBSE">     0</i>
   <v type="int" name="KPOINT">    -1     0     0     0</v>
   <i type="logical" name="LTCTE"> F  </i>
   <i type="logical" name="LTETE"> F  </i>
   <i type="logical" name="LTRIPLET"> F  </i>
   <i type="logical" name="LFXCEPS"> F  </i>
   <i type="logical" name="LFXHEG"> F  </i>
   <i type="int" name="NATURALO">     2</i>
   <i type="logical" name="L2ORDER"> F  </i>
   <i type="logical" name="LMP2LT"> F  </i>
   <i type="logical" name="LUSEW"> F  </i>
   <i name="ENCUTGW">     -2.00000000</i>
   <i name="ENCUTGWSOFT">     -2.00000000</i>
   <i name="ENCUTLF">     -1.00000000</i>
   <i type="int" name="LMAXMP2">    -1</i>
   <i name="SCISSOR">      0.00000000</i>
   <i type="int" name="NOMEGA">     0</i>
   <i type="int" name="NOMEGAR">     0</i>
   <i type="int" name="NBANDSGW">    -1</i>
   <i type="int" name="NBANDSO">    -1</i>
   <i type="int" name="NBANDSV">    -1</i>
   <i type="int" name="NELM">   100</i>
   <i type="int" name="NELMHF">     1</i>
   <i type="int" name="DIM">     3</i>
   <i type="int" name="ANTIRES">     0</i>
   <i name="OMEGAMAX">    -30.00000000</i>
   <i name="OMEGAMIN">    -30.00000000</i>
   <i name="OMEGATL">   -200.00000000</i>
   <i type="int" name="OMEGAGRID">   140</i>
   <i name="CSHIFT">     -0.10000000</i>
   <i type="logical" name="SELFENERGY"> F  </i>
   <i type="logical" name="LSPECTRAL"> F  </i>
   <i type="logical" name="LSPECTRALGW"> F  </i>
   <i type="logical" name="LSINGLES"> F  </i>
   <i type="logical" name="LFERMIGW"> F  </i>
   <i type="logical" name="ODDONLYGW"> F  </i>
   <i type="logical" name="EVENONLYGW"> F  </i>
   <i type="int" name="NKREDLFX">     1</i>
   <i type="int" name="NKREDLFY">     1</i>
   <i type="int" name="NKREDLFZ">     1</i>
   <i type="int" name="MAXMEM">  2800</i>
   <i type="int" name="TELESCOPE">     0</i>
   <i type="int" name="TAUPAR">     1</i>
   <i type="int" name="OMEGAPAR">    -1</i>
   <i name="LAMBDA">      1.00000000</i>
  </separator>
  <separator name="External order field" >
   <i name="OFIELD_KAPPA">      0.00000000</i>
   <v name="OFIELD_K">      0.00000000      0.00000000      0.00000000</v>
   <i name="OFIELD_Q6_NEAR">      0.00000000</i>
   <i name="OFIELD_Q6_FAR">      0.00000000</i>
   <i name="OFIELD_A">      0.00000000</i>
  </separator>
 </parameters>
 <atominfo>
  <atoms>      67 </atoms>
  <types>       4 </types>
  <array name="atoms" >
   <dimension dim="1">ion</dimension>
   <field type="string">element</field>
   <field type="int">atomtype</field>
   <set>
    <rc><c>Pt</c><c>   1</c></rc>
    <rc><c>Pt</c><c>   1</c></rc>
    <rc><c>Pt</c><c>   1</c></rc>
    <rc><c>Pt</c><c>   1</c></rc>
    <rc><c>Pt</c><c>   1</c></rc>
    <rc><c>Pt</c><c>   1</c></rc>
    <rc><c>Pt</c><c>   1</c></rc>
    <rc><c>Pt</c><c>   1</c></rc>
    <rc><c>Pt</c><c>   1</c></rc>
    <rc><c>Pt</c><c>   1</c></rc>
    <rc><c>Pt</c><c>   1</c></rc>
    <rc><c>Pt</c><c>   1</c></rc>
    <rc><c>Pt</c><c>   1</c></rc>
    <rc><c>Pt</c><c>   1</c></rc>
    <rc><c>Pt</c><c>   1</c></rc>
    <rc><c>Pt</c><c>   1</c></rc>
    <rc><c>Pt</c><c>   1</c></rc>
    <rc><c>Pt</c><c>   1</c></rc>
    <rc><c>Pt</c><c>   1</c></rc>
    <rc><c>Pt</c><c>   1</c></rc>
    <rc><c>Pt</c><c>   1</c></rc>
    <rc><c>Pt</c><c>   1</c></rc>
    <rc><c>Pt</c><c>   1</c></rc>
    <rc><c>Pt</c><c>   1</c></rc>
    <rc><c>Pt</c><c>   1</c></rc>
    <rc><c>Pt</c><c>   1</c></rc>
    <rc><c>Pt</c><c>   1</c></rc>
    <rc><c>Pt</c><c>   1</c></rc>
    <rc><c>Pt</c><c>   1</c></rc>
    <rc><c>Pt</c><c>   1</c></rc>
    <rc><c>Pt</c><c>   1</c></rc>
    <rc><c>Pt</c><c>   1</c></rc>
    <rc><c>Pt</c><c>   1</c></rc>
    <rc><c>Pt</c><c>   1</c></rc>
    <rc><c>Pt</c><c>   1</c></rc>
    <rc><c>Pt</c><c>   1</c></rc>
    <rc><c>Pt</c><c>   1</c></rc>
    <rc><c>Pt</c><c>   1</c></rc>
    <rc><c>Pt</c><c>   1</c></rc>
    <rc><c>Pt</c><c>   1</c></rc>
    <rc><c>Pt</c><c>   1</c></rc>
    <rc><c>Pt</c><c>   1</c></rc>
    <rc><c>Pt</c><c>   1</c></rc>
    <rc><c>Pt</c><c>   1</c></rc>
    <rc><c>Pt</c><c>   1</c></rc>
    <rc><c>Pt</c><c>   1</c></rc>
    <rc><c>Pt</c><c>   1</c></rc>
    <rc><c>Pt</c><c>   1</c></rc>
    <rc><c>Pt</c><c>   1</c></rc>
    <rc><c>Pt</c><c>   1</c></rc>
    <rc><c>Pt</c><c>   1</c></rc>
    <rc><c>Pt</c><c>   1</c></rc>
    <rc><c>Pt</c><c>   1</c></rc>
    <rc><c>Pt</c><c>   1</c></rc>
    <rc><c>Pt</c><c>   1</c></rc>
    <rc><c>Pt</c><c>   1</c></rc>
    <rc><c>Pt</c><c>   1</c></rc>
    <rc><c>Pt</c><c>   1</c></rc>
    <rc><c>Pt</c><c>   1</c></rc>
    <rc><c>Pt</c><c>   1</c></rc>
    <rc><c>Pt</c><c>   1</c></rc>
    <rc><c>Pt</c><c>   1</c></rc>
    <rc><c>Pt</c><c>   1</c></rc>
    <rc><c>Pt</c><c>   1</c></rc>
    <rc><c>O </c><c>   2</c></rc>
    <rc><c>C </c><c>   3</c></rc>
    <rc><c>H </c><c>   4</c></rc>
   </set>
  </array>
  <array name="atomtypes" >
   <dimension dim="1">type</dimension>
   <field type="int">atomspertype</field>
   <field type="string">element</field>
   <field>mass</field>
   <field>valence</field>
   <field type="string">pseudopotential</field>
   <set>
    <rc><c>  64</c><c>Pt</c><c>    195.08000000</c><c>     10.00000000</c><c>  PAW_PBE Pt 04Feb2005                  </c></rc>
    <rc><c>   1</c><c>O </c><c>     16.00000000</c><c>      6.00000000</c><c>  PAW_PBE O 08Apr2002                   </c></rc>
    <rc><c>   1</c><c>C </c><c>     12.01100000</c><c>      4.00000000</c><c>  PAW_PBE C 08Apr2002                   </c></rc>
    <rc><c>   1</c><c>H </c><c>      1.00000000</c><c>      1.00000000</c><c>  PAW_PBE H 15Jun2001                   </c></rc>
   </set>
  </array>
 </atominfo>
 <structure name="initialpos" >
  <crystal>
   <varray name="basis" >
    <v>      11.21440000       0.00000000       0.00000000 </v>
    <v>       5.60720000       9.71195529       0.00000000 </v>
    <v>       0.00000000       0.00000000      31.44560000 </v>
   </varray>
   <i name="volume">   3424.85826052 </i>
   <varray name="rec_basis" >
    <v>       0.08917107      -0.05148294       0.00000000 </v>
    <v>       0.00000000       0.10296588       0.00000000 </v>
    <v>       0.00000000       0.00000000       0.03180095 </v>
   </varray>
  </crystal>
  <varray name="positions" >
   <v>       0.08333000       0.33333000       0.39081000 </v>
   <v>       0.08333000       0.08333000       0.39081000 </v>
   <v>       0.33333000       0.33333000       0.39081000 </v>
   <v>       0.33333000       0.08333000       0.39081000 </v>
   <v>       0.41667000       0.16667000       0.46360000 </v>
   <v>       0.41667000       0.41667000       0.46360000 </v>
   <v>       0.16667000       0.16667000       0.46360000 </v>
   <v>       0.16667000       0.41667000       0.46360000 </v>
   <v>       0.24992021       0.00073788       0.53558213 </v>
   <v>       0.25071799       0.25078149       0.53541258 </v>
   <v>       0.49997823       0.00183639       0.53557957 </v>
   <v>       0.50146160       0.25292383       0.53739454 </v>
   <v>       0.08348913       0.33513523       0.60877191 </v>
   <v>       0.08284342       0.08597852       0.60876949 </v>
   <v>       0.33213481       0.33560058       0.60880712 </v>
   <v>       0.33343322       0.08579564       0.60873840 </v>
   <v>       0.08333000       0.83333000       0.39081000 </v>
   <v>       0.08333000       0.58333000       0.39081000 </v>
   <v>       0.33333000       0.83333000       0.39081000 </v>
   <v>       0.33333000       0.58333000       0.39081000 </v>
   <v>       0.41667000       0.66667000       0.46360000 </v>
   <v>       0.41667000       0.91667000       0.46360000 </v>
   <v>       0.16667000       0.66667000       0.46360000 </v>
   <v>       0.16667000       0.91667000       0.46360000 </v>
   <v>       0.24978862       0.50087083       0.53567888 </v>
   <v>       0.25032204       0.75029350       0.53536412 </v>
   <v>       0.50132975       0.49830243       0.53743516 </v>
   <v>       0.49993351       0.75009970       0.53548555 </v>
   <v>       0.08322605       0.83608822       0.60878273 </v>
   <v>       0.08271076       0.58579598       0.60876551 </v>
   <v>       0.33297619       0.83600911       0.60874760 </v>
   <v>       0.33120321       0.58751032       0.60869195 </v>
   <v>       0.58333000       0.33333000       0.39081000 </v>
   <v>       0.58333000       0.08333000       0.39081000 </v>
   <v>       0.83333000       0.33333000       0.39081000 </v>
   <v>       0.83333000       0.08333000       0.39081000 </v>
   <v>       0.91667000       0.16667000       0.46360000 </v>
   <v>       0.91667000       0.41667000       0.46360000 </v>
   <v>       0.66667000       0.16667000       0.46360000 </v>
   <v>       0.66667000       0.41667000       0.46360000 </v>
   <v>       0.74958145       0.00128574       0.53578231 </v>
   <v>       0.74666373       0.25288134       0.53733126 </v>
   <v>       0.99885064       0.00175608       0.53553852 </v>
   <v>       0.99943382       0.25055113       0.53535621 </v>
   <v>       0.58187897       0.33769881       0.61863714 </v>
   <v>       0.58328860       0.08525110       0.60907362 </v>
   <v>       0.83457696       0.33575062       0.60874891 </v>
   <v>       0.83382764       0.08516497       0.60894330 </v>
   <v>       0.58333000       0.83333000       0.39081000 </v>
   <v>       0.58333000       0.58333000       0.39081000 </v>
   <v>       0.83333000       0.83333000       0.39081000 </v>
   <v>       0.83333000       0.58333000       0.39081000 </v>
   <v>       0.91667000       0.66667000       0.46360000 </v>
   <v>       0.91667000       0.91667000       0.46360000 </v>
   <v>       0.66667000       0.66667000       0.46360000 </v>
   <v>       0.66667000       0.91667000       0.46360000 </v>
   <v>       0.74988387       0.50086992       0.53576907 </v>
   <v>       0.74958262       0.75104704       0.53575285 </v>
   <v>       0.99997922       0.50044658       0.53569906 </v>
   <v>       0.99968050       0.75119192       0.53575323 </v>
   <v>       0.58271828       0.83601753       0.60880555 </v>
   <v>       0.58308648       0.58744663       0.60901926 </v>
   <v>       0.83296839       0.83592610       0.60888365 </v>
   <v>       0.83335734       0.58590630       0.60885814 </v>
   <v>       0.47913154       0.38446010       0.70403567 </v>
   <v>       0.57805905       0.34967734       0.68162642 </v>
   <v>       0.68204666       0.32038149       0.69443471 </v>
  </varray>
  <varray name="selective"  type="logical" >
   <v type="logical" >  F  F  F </v>
   <v type="logical" >  F  F  F </v>
   <v type="logical" >  F  F  F </v>
   <v type="logical" >  F  F  F </v>
   <v type="logical" >  F  F  F </v>
   <v type="logical" >  F  F  F </v>
   <v type="logical" >  F  F  F </v>
   <v type="logical" >  F  F  F </v>
   <v type="logical" >  F  F  F </v>
   <v type="logical" >  F  F  F </v>
   <v type="logical" >  F  F  F </v>
   <v type="logical" >  F  F  F </v>
   <v type="logical" >  F  F  F </v>
   <v type="logical" >  F  F  F </v>
   <v type="logical" >  F  F  F </v>
   <v type="logical" >  F  F  F </v>
   <v type="logical" >  F  F  F </v>
   <v type="logical" >  F  F  F </v>
   <v type="logical" >  F  F  F </v>
   <v type="logical" >  F  F  F </v>
   <v type="logical" >  F  F  F </v>
   <v type="logical" >  F  F  F </v>
   <v type="logical" >  F  F  F </v>
   <v type="logical" >  F  F  F </v>
   <v type="logical" >  F  F  F </v>
   <v type="logical" >  F  F  F </v>
   <v type="logical" >  F  F  F </v>
   <v type="logical" >  F  F  F </v>
   <v type="logical" >  F  F  F </v>
   <v type="logical" >  F  F  F </v>
   <v type="logical" >  F  F  F </v>
   <v type="logical" >  F  F  F </v>
   <v type="logical" >  F  F  F </v>
   <v type="logical" >  F  F  F </v>
   <v type="logical" >  F  F  F </v>
   <v type="logical" >  F  F  F </v>
   <v type="logical" >  F  F  F </v>
   <v type="logical" >  F  F  F </v>
   <v type="logical" >  F  F  F </v>
   <v type="logical" >  F  F  F </v>
   <v type="logical" >  F  F  F </v>
   <v type="logical" >  F  F  F </v>
   <v type="logical" >  F  F  F </v>
   <v type="logical" >  F  F  F </v>
   <v type="logical" >  F  F  F </v>
   <v type="logical" >  F  F  F </v>
   <v type="logical" >  F  F  F </v>
   <v type="logical" >  F  F  F </v>
   <v type="logical" >  F  F  F </v>
   <v type="logical" >  F  F  F </v>
   <v type="logical" >  F  F  F </v>
   <v type="logical" >  F  F  F </v>
   <v type="logical" >  F  F  F </v>
   <v type="logical" >  F  F  F </v>
   <v type="logical" >  F  F  F </v>
   <v type="logical" >  F  F  F </v>
   <v type="logical" >  F  F  F </v>
   <v type="logical" >  F  F  F </v>
   <v type="logical" >  F  F  F </v>
   <v type="logical" >  F  F  F </v>
   <v type="logical" >  F  F  F </v>
   <v type="logical" >  F  F  F </v>
   <v type="logical" >  F  F  F </v>
   <v type="logical" >  F  F  F </v>
   <v type="logical" >  T  T  T </v>
   <v type="logical" >  T  T  T </v>
   <v type="logical" >  T  T  T </v>
  </varray>
  <nose>
   <v>      -3.00000000       0.00000000       0.00010000       0.00010000 </v>
  </nose>
 </structure>
 <calculation>
  <scstep>
   <time name="dav">   11.03   11.06</time>
   <time name="total">   11.07   11.10</time>
   <energy>
    <i name="alphaZ">   1165.16924622 </i>
    <i name="ewald"> 409503.79774460 </i>
    <i name="hartreedc">-458123.90249567 </i>
    <i name="XCdc">    258.14971456 </i>
    <i name="pawpsdc">  45009.11181811 </i>
    <i name="pawaedc"> -43201.36138378 </i>
    <i name="eentropy">      0.00052280 </i>
    <i name="bandstr">   2388.46983383 </i>
    <i name="atom">  47255.03396832 </i>
    <i name="e_fr_energy">   4254.46896899 </i>
    <i name="e_wo_entrp">   4254.46844618 </i>
    <i name="e_0_energy">   4254.46879472 </i>
   </energy>
  </scstep>
  <scstep>
   <time name="dav">   13.10   13.14</time>
   <time name="total">   13.11   13.14</time>
   <energy>
    <i name="e_fr_energy">    -27.53507131 </i>
    <i name="e_wo_entrp">    -27.53795221 </i>
    <i name="e_0_energy">    -27.53603161 </i>
   </energy>
  </scstep>
  <scstep>
   <time name="dav">   12.19   12.23</time>
   <time name="total">   12.19   12.23</time>
   <energy>
    <i name="e_fr_energy">   -398.73217582 </i>
    <i name="e_wo_entrp">   -398.68876528 </i>
    <i name="e_0_energy">   -398.71770564 </i>
   </energy>
  </scstep>
  <scstep>
   <time name="dav">   13.88   13.91</time>
   <time name="total">   13.88   13.91</time>
   <energy>
    <i name="e_fr_energy">   -416.77993002 </i>
    <i name="e_wo_entrp">   -416.70271043 </i>
    <i name="e_0_energy">   -416.75419015 </i>
   </energy>
  </scstep>
  <scstep>
   <time name="dav">   13.03   13.06</time>
   <time name="total">   13.33   13.36</time>
   <energy>
    <i name="e_fr_energy">   -417.28443762 </i>
    <i name="e_wo_entrp">   -417.20651779 </i>
    <i name="e_0_energy">   -417.25846434 </i>
   </energy>
  </scstep>
  <scstep>
   <time name="diag">    1.57    1.58</time>
   <time name="diis">    4.81    4.82</time>
   <time name="orth">    0.49    0.49</time>
   <time name="total">    7.19    7.22</time>
   <energy>
    <i name="e_fr_energy">   -404.15804183 </i>
    <i name="e_wo_entrp">   -404.12956775 </i>
    <i name="e_0_energy">   -404.14855047 </i>
   </energy>
  </scstep>
  <scstep>
   <time name="diag">    1.58    1.58</time>
   <time name="diis">    4.76    4.77</time>
   <time name="orth">    0.49    0.49</time>
   <time name="total">    7.15    7.17</time>
   <energy>
    <i name="e_fr_energy">   -479.91044460 </i>
    <i name="e_wo_entrp">   -479.89070496 </i>
    <i name="e_0_energy">   -479.90386472 </i>
   </energy>
  </scstep>
  <scstep>
   <time name="diag">    1.58    1.59</time>
   <time name="diis">    4.82    4.83</time>
   <time name="orth">    0.49    0.50</time>
   <time name="total">    7.21    7.23</time>
   <energy>
    <i name="e_fr_energy">   -408.25651591 </i>
    <i name="e_wo_entrp">   -408.28366366 </i>
    <i name="e_0_energy">   -408.26556516 </i>
   </energy>
  </scstep>
  <scstep>
   <time name="diag">    1.58    1.59</time>
   <time name="diis">    4.78    4.79</time>
   <time name="orth">    0.49    0.49</time>
   <time name="total">    7.17    7.19</time>
   <energy>
    <i name="e_fr_energy">   -444.43656813 </i>
    <i name="e_wo_entrp">   -444.45896052 </i>
    <i name="e_0_energy">   -444.44403226 </i>
   </energy>
  </scstep>
  <scstep>
   <time name="diag">    1.58    1.59</time>
   <time name="diis">    4.83    4.84</time>
   <time name="orth">    0.49    0.49</time>
   <time name="total">    7.21    7.23</time>
   <energy>
    <i name="e_fr_energy">   -409.38376779 </i>
    <i name="e_wo_entrp">   -409.39569228 </i>
    <i name="e_0_energy">   -409.38774262 </i>
   </energy>
  </scstep>
  <scstep>
   <time name="diag">    1.59    1.59</time>
   <time name="diis">    4.81    4.82</time>
   <time name="orth">    0.49    0.49</time>
   <time name="total">    7.20    7.22</time>
   <energy>
    <i name="e_fr_energy">   -395.34309052 </i>
    <i name="e_wo_entrp">   -395.31509126 </i>
    <i name="e_0_energy">   -395.33375743 </i>
   </energy>
  </scstep>
  <scstep>
   <time name="diag">    1.58    1.59</time>
   <time name="diis">    4.82    4.83</time>
   <time name="orth">    0.49    0.49</time>
   <time name="total">    7.21    7.23</time>
   <energy>
    <i name="e_fr_energy">   -392.55847398 </i>
    <i name="e_wo_entrp">   -392.54333841 </i>
    <i name="e_0_energy">   -392.55342879 </i>
   </energy>
  </scstep>
  <scstep>
   <time name="diag">    1.58    1.59</time>
   <time name="diis">    4.83    4.84</time>
   <time name="orth">    0.50    0.50</time>
   <time name="total">    7.22    7.24</time>
   <energy>
    <i name="e_fr_energy">   -391.30170695 </i>
    <i name="e_wo_entrp">   -391.26344713 </i>
    <i name="e_0_energy">   -391.28895367 </i>
   </energy>
  </scstep>
  <scstep>
   <time name="diag">    1.58    1.59</time>
   <time name="diis">    4.81    4.82</time>
   <time name="orth">    0.49    0.49</time>
   <time name="total">    7.20    7.22</time>
   <energy>
    <i name="e_fr_energy">   -390.23612129 </i>
    <i name="e_wo_entrp">   -390.19396095 </i>
    <i name="e_0_energy">   -390.22206784 </i>
   </energy>
  </scstep>
  <scstep>
   <time name="diag">    1.59    1.59</time>
   <time name="diis">    4.82    4.83</time>
   <time name="orth">    0.49    0.49</time>
   <time name="total">    7.22    7.24</time>
   <energy>
    <i name="e_fr_energy">   -389.95315205 </i>
    <i name="e_wo_entrp">   -389.90852720 </i>
    <i name="e_0_energy">   -389.93827710 </i>
   </energy>
  </scstep>
  <scstep>
   <time name="diag">    1.59    1.59</time>
   <time name="diis">    4.84    4.85</time>
   <time name="orth">    0.49    0.49</time>
   <time name="total">    7.24    7.25</time>
   <energy>
    <i name="e_fr_energy">   -389.92825181 </i>
    <i name="e_wo_entrp">   -389.88671848 </i>
    <i name="e_0_energy">   -389.91440737 </i>
   </energy>
  </scstep>
  <scstep>
   <time name="diag">    1.58    1.59</time>
   <time name="diis">    4.82    4.84</time>
   <time name="orth">    0.49    0.49</time>
   <time name="total">    7.21    7.23</time>
   <energy>
    <i name="e_fr_energy">   -389.94263849 </i>
    <i name="e_wo_entrp">   -389.90020706 </i>
    <i name="e_0_energy">   -389.92849468 </i>
   </energy>
  </scstep>
  <scstep>
   <time name="diag">    1.58    1.59</time>
   <time name="diis">    4.82    4.83</time>
   <time name="orth">    0.49    0.50</time>
   <time name="total">    7.21    7.23</time>
   <energy>
    <i name="e_fr_energy">   -389.94180457 </i>
    <i name="e_wo_entrp">   -389.90377700 </i>
    <i name="e_0_energy">   -389.92912871 </i>
   </energy>
  </scstep>
  <scstep>
   <time name="diag">    1.58    1.59</time>
   <time name="diis">    4.82    4.83</time>
   <time name="orth">    0.49    0.50</time>
   <time name="total">    7.21    7.22</time>
   <energy>
    <i name="e_fr_energy">   -389.85556014 </i>
    <i name="e_wo_entrp">   -389.81606692 </i>
    <i name="e_0_energy">   -389.84239573 </i>
   </energy>
  </scstep>
  <scstep>
   <time name="diag">    1.59    1.59</time>
   <time name="diis">    4.80    4.81</time>
   <time name="orth">    0.49    0.49</time>
   <time name="total">    7.19    7.21</time>
   <energy>
    <i name="e_fr_energy">   -389.84630844 </i>
    <i name="e_wo_entrp">   -389.80454270 </i>
    <i name="e_0_energy">   -389.83238652 </i>
   </energy>
  </scstep>
  <scstep>
   <time name="diag">    1.58    1.58</time>
   <time name="diis">    4.87    4.89</time>
   <time name="orth">    0.49    0.49</time>
   <time name="total">    7.26    7.28</time>
   <energy>
    <i name="e_fr_energy">   -389.84598870 </i>
    <i name="e_wo_entrp">   -389.80206403 </i>
    <i name="e_0_energy">   -389.83134714 </i>
   </energy>
  </scstep>
  <scstep>
   <time name="diag">    1.58    1.59</time>
   <time name="diis">    4.85    4.86</time>
   <time name="orth">    0.50    0.50</time>
   <time name="total">    7.24    7.26</time>
   <energy>
    <i name="e_fr_energy">   -389.84352934 </i>
    <i name="e_wo_entrp">   -389.79845636 </i>
    <i name="e_0_energy">   -389.82850501 </i>
   </energy>
  </scstep>
  <scstep>
   <time name="diag">    1.58    1.59</time>
   <time name="diis">    4.82    4.84</time>
   <time name="orth">    0.49    0.50</time>
   <time name="total">    7.21    7.23</time>
   <energy>
    <i name="e_fr_energy">   -389.84099538 </i>
    <i name="e_wo_entrp">   -389.79733514 </i>
    <i name="e_0_energy">   -389.82644196 </i>
   </energy>
  </scstep>
  <scstep>
   <time name="diag">    1.58    1.59</time>
   <time name="diis">    4.79    4.81</time>
   <time name="orth">    0.49    0.49</time>
   <time name="total">    7.18    7.20</time>
   <energy>
    <i name="e_fr_energy">   -389.83911489 </i>
    <i name="e_wo_entrp">   -389.79658439 </i>
    <i name="e_0_energy">   -389.82493805 </i>
   </energy>
  </scstep>
  <scstep>
   <time name="diag">    1.59    1.59</time>
   <time name="diis">    4.85    4.86</time>
   <time name="orth">    0.49    0.49</time>
   <time name="total">    7.24    7.26</time>
   <energy>
    <i name="e_fr_energy">   -389.83903781 </i>
    <i name="e_wo_entrp">   -389.79679439 </i>
    <i name="e_0_energy">   -389.82495667 </i>
   </energy>
  </scstep>
  <scstep>
   <time name="diag">    1.58    1.59</time>
   <time name="diis">    4.76    4.78</time>
   <time name="orth">    0.49    0.50</time>
   <time name="total">    7.16    7.19</time>
   <energy>
    <i name="e_fr_energy">   -389.83894378 </i>
    <i name="e_wo_entrp">   -389.79677738 </i>
    <i name="e_0_energy">   -389.82488831 </i>
   </energy>
  </scstep>
  <scstep>
   <time name="diag">    1.58    1.58</time>
   <time name="diis">    4.79    4.80</time>
   <time name="orth">    0.49    0.49</time>
   <time name="total">    7.17    7.19</time>
   <energy>
    <i name="e_fr_energy">   -389.83886411 </i>
    <i name="e_wo_entrp">   -389.79694025 </i>
    <i name="e_0_energy">   -389.82488949 </i>
   </energy>
  </scstep>
  <scstep>
   <time name="diag">    1.58    1.58</time>
   <time name="diis">    4.75    4.76</time>
   <time name="orth">    0.49    0.49</time>
   <time name="total">    7.14    7.16</time>
   <energy>
    <i name="e_fr_energy">   -389.83891801 </i>
    <i name="e_wo_entrp">   -389.79724618 </i>
    <i name="e_0_energy">   -389.82502740 </i>
   </energy>
  </scstep>
  <scstep>
   <time name="diag">    1.58    1.58</time>
   <time name="diis">    3.76    3.77</time>
   <time name="orth">    0.49    0.49</time>
   <time name="total">    6.14    6.16</time>
   <energy>
    <i name="e_fr_energy">   -389.83901990 </i>
    <i name="e_wo_entrp">   -389.79736210 </i>
    <i name="e_0_energy">   -389.82513396 </i>
   </energy>
  </scstep>
  <scstep>
   <time name="diag">    1.58    1.58</time>
   <time name="diis">    2.87    2.88</time>
   <time name="orth">    0.49    0.49</time>
   <time name="total">    5.26    5.27</time>
   <energy>
    <i name="e_fr_energy">   -389.83912651 </i>
    <i name="e_wo_entrp">   -389.79748955 </i>
    <i name="e_0_energy">   -389.82524752 </i>
   </energy>
  </scstep>
  <scstep>
   <time name="diag">    1.58    1.58</time>
   <time name="diis">    2.98    2.99</time>
   <time name="orth">    0.49    0.49</time>
   <time name="total">    5.37    5.38</time>
   <energy>
    <i name="e_fr_energy">   -389.83932928 </i>
    <i name="e_wo_entrp">   -389.79771565 </i>
    <i name="e_0_energy">   -389.82545807 </i>
   </energy>
  </scstep>
  <scstep>
   <time name="diag">    1.57    1.58</time>
   <time name="diis">    2.84    2.84</time>
   <time name="orth">    0.49    0.49</time>
   <time name="total">    5.22    5.23</time>
   <energy>
    <i name="e_fr_energy">   -389.83946408 </i>
    <i name="e_wo_entrp">   -389.79783694 </i>
    <i name="e_0_energy">   -389.82558837 </i>
   </energy>
  </scstep>
  <scstep>
   <time name="diag">    1.57    1.57</time>
   <time name="diis">    2.80    2.81</time>
   <time name="orth">    0.49    0.49</time>
   <time name="total">    5.17    5.18</time>
   <energy>
    <i name="e_fr_energy">   -389.83960100 </i>
    <i name="e_wo_entrp">   -389.79795425 </i>
    <i name="e_0_energy">   -389.82571875 </i>
   </energy>
  </scstep>
  <scstep>
   <time name="diag">    1.56    1.57</time>
   <time name="diis">    2.82    2.82</time>
   <time name="orth">    0.49    0.49</time>
   <time name="total">    5.18    5.20</time>
   <energy>
    <i name="e_fr_energy">   -389.83974880 </i>
    <i name="e_wo_entrp">   -389.79808947 </i>
    <i name="e_0_energy">   -389.82586235 </i>
   </energy>
  </scstep>
  <scstep>
   <time name="diag">    1.58    1.58</time>
   <time name="diis">    2.74    2.75</time>
   <time name="orth">    0.49    0.49</time>
   <time name="total">    5.13    5.14</time>
   <energy>
    <i name="e_fr_energy">   -389.83986971 </i>
    <i name="e_wo_entrp">   -389.79823518 </i>
    <i name="e_0_energy">   -389.82599153 </i>
   </energy>
  </scstep>
  <scstep>
   <time name="diag">    1.58    1.58</time>
   <time name="diis">    2.57    2.58</time>
   <time name="orth">    0.49    0.50</time>
   <time name="total">    4.96    4.97</time>
   <energy>
    <i name="e_fr_energy">   -389.83995361 </i>
    <i name="e_wo_entrp">   -389.79832039 </i>
    <i name="e_0_energy">   -389.82607587 </i>
   </energy>
  </scstep>
  <scstep>
   <time name="diag">    1.57    1.58</time>
   <time name="diis">    2.47    2.47</time>
   <time name="orth">    0.49    0.49</time>
   <time name="total">    4.84    4.86</time>
   <energy>
    <i name="e_fr_energy">   -389.84000931 </i>
    <i name="e_wo_entrp">   -389.79836715 </i>
    <i name="e_0_energy">   -389.82612859 </i>
   </energy>
  </scstep>
  <scstep>
   <time name="diag">    1.57    1.57</time>
   <time name="diis">    2.50    2.51</time>
   <time name="orth">    0.49    0.49</time>
   <time name="total">    4.88    4.89</time>
   <energy>
    <i name="e_fr_energy">   -389.84006583 </i>
    <i name="e_wo_entrp">   -389.79840876 </i>
    <i name="e_0_energy">   -389.82618014 </i>
   </energy>
  </scstep>
  <scstep>
   <time name="diag">    1.58    1.58</time>
   <time name="diis">    2.31    2.32</time>
   <time name="orth">    0.49    0.49</time>
   <time name="total">    4.69    4.70</time>
   <energy>
    <i name="e_fr_energy">   -389.84010524 </i>
    <i name="e_wo_entrp">   -389.79844809 </i>
    <i name="e_0_energy">   -389.82621952 </i>
   </energy>
  </scstep>
  <scstep>
   <time name="diag">    1.58    1.58</time>
   <time name="diis">    2.31    2.32</time>
   <time name="orth">    0.49    0.49</time>
   <time name="total">    4.69    4.70</time>
   <energy>
    <i name="e_fr_energy">   -389.84013828 </i>
    <i name="e_wo_entrp">   -389.79848076 </i>
    <i name="e_0_energy">   -389.82625244 </i>
   </energy>
  </scstep>
  <scstep>
   <time name="diag">    1.58    1.58</time>
   <time name="diis">    1.96    1.96</time>
   <time name="orth">    0.49    0.49</time>
   <time name="total">    4.34    4.35</time>
   <energy>
    <i name="e_fr_energy">   -389.84015285 </i>
    <i name="e_wo_entrp">   -389.79849773 </i>
    <i name="e_0_energy">   -389.82626781 </i>
   </energy>
  </scstep>
  <scstep>
   <time name="diag">    1.57    1.58</time>
   <time name="diis">    2.10    2.11</time>
   <time name="orth">    0.49    0.50</time>
   <time name="total">    4.49    4.50</time>
   <energy>
    <i name="e_fr_energy">   -389.84017197 </i>
    <i name="e_wo_entrp">   -389.79852118 </i>
    <i name="e_0_energy">   -389.82628837 </i>
   </energy>
  </scstep>
  <scstep>
   <time name="diag">    1.57    1.58</time>
   <time name="diis">    1.97    1.98</time>
   <time name="orth">    0.49    0.49</time>
   <time name="total">    4.35    4.37</time>
   <energy>
    <i name="e_fr_energy">   -389.84018223 </i>
    <i name="e_wo_entrp">   -389.79853356 </i>
    <i name="e_0_energy">   -389.82629934 </i>
   </energy>
  </scstep>
  <scstep>
   <time name="diag">    1.57    1.58</time>
   <time name="diis">    2.00    2.01</time>
   <time name="orth">    0.49    0.49</time>
   <time name="total">    4.09    4.10</time>
   <energy>
    <i name="alphaZ">   1165.16924622 </i>
    <i name="ewald"> 409503.79774460 </i>
    <i name="hartreedc">-457498.82773041 </i>
    <i name="XCdc">    236.95524136 </i>
    <i name="pawpsdc">  57154.11341092 </i>
    <i name="pawaedc"> -55519.85583476 </i>
    <i name="eentropy">     -0.04164795 </i>
    <i name="bandstr">  -2686.18458994 </i>
    <i name="atom">  47255.03396832 </i>
    <i name="e_fr_energy">   -389.84019165 </i>
    <i name="e_wo_entrp">   -389.79854369 </i>
    <i name="e_0_energy">   -389.82630900 </i>
   </energy>
  </scstep>
  <structure>
   <crystal>
    <varray name="basis" >
     <v>      11.21440000       0.00000000       0.00000000 </v>
     <v>       5.60720000       9.71195529       0.00000000 </v>
     <v>       0.00000000       0.00000000      31.44560000 </v>
    </varray>
    <i name="volume">   3424.85826052 </i>
    <varray name="rec_basis" >
     <v>       0.08917107      -0.05148294       0.00000000 </v>
     <v>       0.00000000       0.10296588       0.00000000 </v>
     <v>       0.00000000       0.00000000       0.03180095 </v>
    </varray>
   </crystal>
   <varray name="positions" >
    <v>       0.08333000       0.33333000       0.39081000 </v>
    <v>       0.08333000       0.08333000       0.39081000 </v>
    <v>       0.33333000       0.33333000       0.39081000 </v>
    <v>       0.33333000       0.08333000       0.39081000 </v>
    <v>       0.41667000       0.16667000       0.46360000 </v>
    <v>       0.41667000       0.41667000       0.46360000 </v>
    <v>       0.16667000       0.16667000       0.46360000 </v>
    <v>       0.16667000       0.41667000       0.46360000 </v>
    <v>       0.24992021       0.00073788       0.53558213 </v>
    <v>       0.25071799       0.25078149       0.53541258 </v>
    <v>       0.49997823       0.00183639       0.53557957 </v>
    <v>       0.50146160       0.25292383       0.53739454 </v>
    <v>       0.08348913       0.33513523       0.60877191 </v>
    <v>       0.08284342       0.08597852       0.60876949 </v>
    <v>       0.33213481       0.33560058       0.60880712 </v>
    <v>       0.33343322       0.08579564       0.60873840 </v>
    <v>       0.08333000       0.83333000       0.39081000 </v>
    <v>       0.08333000       0.58333000       0.39081000 </v>
    <v>       0.33333000       0.83333000       0.39081000 </v>
    <v>       0.33333000       0.58333000       0.39081000 </v>
    <v>       0.41667000       0.66667000       0.46360000 </v>
    <v>       0.41667000       0.91667000       0.46360000 </v>
    <v>       0.16667000       0.66667000       0.46360000 </v>
    <v>       0.16667000       0.91667000       0.46360000 </v>
    <v>       0.24978862       0.50087083       0.53567888 </v>
    <v>       0.25032204       0.75029350       0.53536412 </v>
    <v>       0.50132975       0.49830243       0.53743516 </v>
    <v>       0.49993351       0.75009970       0.53548555 </v>
    <v>       0.08322605       0.83608822       0.60878273 </v>
    <v>       0.08271076       0.58579598       0.60876551 </v>
    <v>       0.33297619       0.83600911       0.60874760 </v>
    <v>       0.33120321       0.58751032       0.60869195 </v>
    <v>       0.58333000       0.33333000       0.39081000 </v>
    <v>       0.58333000       0.08333000       0.39081000 </v>
    <v>       0.83333000       0.33333000       0.39081000 </v>
    <v>       0.83333000       0.08333000       0.39081000 </v>
    <v>       0.91667000       0.16667000       0.46360000 </v>
    <v>       0.91667000       0.41667000       0.46360000 </v>
    <v>       0.66667000       0.16667000       0.46360000 </v>
    <v>       0.66667000       0.41667000       0.46360000 </v>
    <v>       0.74958145       0.00128574       0.53578231 </v>
    <v>       0.74666373       0.25288134       0.53733126 </v>
    <v>       0.99885064       0.00175608       0.53553852 </v>
    <v>       0.99943382       0.25055113       0.53535621 </v>
    <v>       0.58187897       0.33769881       0.61863714 </v>
    <v>       0.58328860       0.08525110       0.60907362 </v>
    <v>       0.83457696       0.33575062       0.60874891 </v>
    <v>       0.83382764       0.08516497       0.60894330 </v>
    <v>       0.58333000       0.83333000       0.39081000 </v>
    <v>       0.58333000       0.58333000       0.39081000 </v>
    <v>       0.83333000       0.83333000       0.39081000 </v>
    <v>       0.83333000       0.58333000       0.39081000 </v>
    <v>       0.91667000       0.66667000       0.46360000 </v>
    <v>       0.91667000       0.91667000       0.46360000 </v>
    <v>       0.66667000       0.66667000       0.46360000 </v>
    <v>       0.66667000       0.91667000       0.46360000 </v>
    <v>       0.74988387       0.50086992       0.53576907 </v>
    <v>       0.74958262       0.75104704       0.53575285 </v>
    <v>       0.99997922       0.50044658       0.53569906 </v>
    <v>       0.99968050       0.75119192       0.53575323 </v>
    <v>       0.58271828       0.83601753       0.60880555 </v>
    <v>       0.58308648       0.58744663       0.60901926 </v>
    <v>       0.83296839       0.83592610       0.60888365 </v>
    <v>       0.83335734       0.58590630       0.60885814 </v>
    <v>       0.47913154       0.38446010       0.70403567 </v>
    <v>       0.57805905       0.34967734       0.68162642 </v>
    <v>       0.68204666       0.32038149       0.69443471 </v>
   </varray>
  </structure>
  <varray name="forces" >
   <v>       0.00126462      -0.01781754      -0.05463576 </v>
   <v>       0.07396325      -0.04527022      -0.11287204 </v>
   <v>      -0.00248346      -0.01809943      -0.06110491 </v>
   <v>      -0.07410124      -0.04009048      -0.11484326 </v>
   <v>       0.05781115       0.02807222       0.00297041 </v>
   <v>       0.08621019      -0.02898117       0.27728774 </v>
   <v>       0.01807970      -0.00455645       0.01732421 </v>
   <v>       0.02956072       0.02001556       0.01020342 </v>
   <v>       0.00266739      -0.00346774       0.00213718 </v>
   <v>      -0.00386404      -0.00604545       0.00199848 </v>
   <v>       0.00738029      -0.00330038      -0.00106319 </v>
   <v>      -0.00525469      -0.00777752      -0.00663994 </v>
   <v>      -0.00488607       0.00146161      -0.00052824 </v>
   <v>      -0.01000714      -0.00439692      -0.00391288 </v>
   <v>      -0.00036635       0.00035497      -0.00294799 </v>
   <v>      -0.00747755      -0.00578582       0.00078141 </v>
   <v>       0.01485757       0.00594483      -0.05358699 </v>
   <v>       0.00452661      -0.00478407      -0.04282551 </v>
   <v>      -0.00141144       0.08123967      -0.12355829 </v>
   <v>       0.01465563       0.00472623      -0.05726161 </v>
   <v>       0.00830146      -0.03439476      -0.01126541 </v>
   <v>       0.00166873       0.01533204       0.02644213 </v>
   <v>      -0.00268801      -0.01683535       0.00962902 </v>
   <v>       0.01255752       0.01550527       0.02680266 </v>
   <v>       0.00277981      -0.00756951       0.00224812 </v>
   <v>       0.00229551      -0.00089649       0.00696356 </v>
   <v>       0.00230016       0.00157203      -0.01192576 </v>
   <v>       0.00028043       0.00064582      -0.00114084 </v>
   <v>      -0.01177040       0.00164792       0.00153296 </v>
   <v>      -0.00659309       0.00467155       0.00367022 </v>
   <v>      -0.00101645      -0.00675481      -0.00230729 </v>
   <v>       0.00271240      -0.00216072       0.00111136 </v>
   <v>      -0.00055204      -0.00391634      -0.05243872 </v>
   <v>      -0.01468947       0.00449436      -0.06048206 </v>
   <v>      -0.00065132      -0.01358871      -0.06160523 </v>
   <v>       0.01231495       0.00462065      -0.05810953 </v>
   <v>      -0.04888309       0.02950713      -0.01229792 </v>
   <v>      -0.02393152       0.02284555       0.00722846 </v>
   <v>      -0.00118007       0.10278595       0.28979606 </v>
   <v>      -0.07835354      -0.02377455       0.28501204 </v>
   <v>       0.00685250      -0.00145894       0.00151526 </v>
   <v>       0.00331978      -0.00414792      -0.00038964 </v>
   <v>       0.00115941       0.00085627      -0.00542986 </v>
   <v>       0.00169876      -0.00025314      -0.00030355 </v>
   <v>      -0.00370096      -0.00113558       0.00980575 </v>
   <v>      -0.00878900      -0.00852414       0.00458755 </v>
   <v>      -0.00619447      -0.00118808       0.00103024 </v>
   <v>      -0.00492310      -0.00698083       0.00759240 </v>
   <v>      -0.01619747       0.00610620      -0.05376959 </v>
   <v>      -0.01429899       0.00577632      -0.05870977 </v>
   <v>      -0.00005059       0.00306830      -0.04769863 </v>
   <v>      -0.00672299      -0.00662820      -0.04370135 </v>
   <v>       0.00115235       0.01121022       0.07528564 </v>
   <v>      -0.01975818       0.02820536       0.02496977 </v>
   <v>      -0.00062308      -0.01349888       0.01906217 </v>
   <v>       0.01763343       0.02960367       0.02950060 </v>
   <v>      -0.00241511      -0.00169358      -0.00106075 </v>
   <v>       0.00820796      -0.00580763      -0.00005958 </v>
   <v>      -0.00292128      -0.00383620       0.00069894 </v>
   <v>       0.00681621      -0.01081733      -0.00348128 </v>
   <v>      -0.00331444      -0.00246808      -0.00151595 </v>
   <v>       0.00397637      -0.00363974       0.00471306 </v>
   <v>      -0.00178285      -0.00198795      -0.00302535 </v>
   <v>      -0.00577439       0.00259878       0.00480238 </v>
   <v>      -0.04127603      -0.00522802       0.03313955 </v>
   <v>       0.05899890      -0.04037530      -0.05472255 </v>
   <v>      -0.02709990      -0.01293451      -0.00862158 </v>
  </varray>
  <varray name="stress" >
   <v>     -20.36266902      -0.82693352      -1.01492436 </v>
   <v>      -0.82693352     -21.92919208       0.02742501 </v>
   <v>      -1.01492436       0.02742501     -19.46559249 </v>
  </varray>
  <energy>
   <i name="e_fr_energy">   -389.84019165 </i>
   <i name="e_wo_entrp">   -389.82630900 </i>
   <i name="e_0_energy">     -0.04164795 </i>
  </energy>
  <time name="totalsc">  311.60  312.45</time>
 </calculation>
 <calculation>
  <scstep>
   <time name="dav">   11.06   11.09</time>
   <time name="total">   11.37   11.41</time>
   <energy>
    <i name="alphaZ">   1165.16924622 </i>
    <i name="ewald"> 409506.94201113 </i>
    <i name="hartreedc">-457500.91927719 </i>
    <i name="XCdc">    237.00204687 </i>
    <i name="pawpsdc">  57154.11746060 </i>
    <i name="pawaedc"> -55519.85995870 </i>
    <i name="eentropy">     -0.04163839 </i>
    <i name="bandstr">  -2687.27601291 </i>
    <i name="atom">  47255.03396832 </i>
    <i name="e_fr_energy">   -389.83215405 </i>
    <i name="e_wo_entrp">   -389.79051566 </i>
    <i name="e_0_energy">   -389.81827459 </i>
   </energy>
  </scstep>
  <scstep>
   <time name="diag">    1.58    1.58</time>
   <time name="diis">    4.78    4.79</time>
   <time name="orth">    0.49    0.49</time>
   <time name="total">    7.15    7.17</time>
   <energy>
    <i name="e_fr_energy">   -389.83408964 </i>
    <i name="e_wo_entrp">   -389.79237533 </i>
    <i name="e_0_energy">   -389.82018487 </i>
   </energy>
  </scstep>
  <scstep>
   <time name="diag">    1.58    1.59</time>
   <time name="diis">    5.03    5.04</time>
   <time name="orth">    0.49    0.49</time>
   <time name="total">    7.41    7.43</time>
   <energy>
    <i name="e_fr_energy">   -389.83434743 </i>
    <i name="e_wo_entrp">   -389.79277422 </i>
    <i name="e_0_energy">   -389.82048969 </i>
   </energy>
  </scstep>
  <scstep>
   <time name="diag">    1.57    1.58</time>
   <time name="diis">    4.78    4.79</time>
   <time name="orth">    0.49    0.49</time>
   <time name="total">    7.15    7.17</time>
   <energy>
    <i name="e_fr_energy">   -389.83431448 </i>
    <i name="e_wo_entrp">   -389.79270970 </i>
    <i name="e_0_energy">   -389.82044622 </i>
   </energy>
  </scstep>
  <scstep>
   <time name="diag">    1.57    1.58</time>
   <time name="diis">    4.79    4.80</time>
   <time name="orth">    0.49    0.49</time>
   <time name="total">    7.16    7.18</time>
   <energy>
    <i name="e_fr_energy">   -389.83415488 </i>
    <i name="e_wo_entrp">   -389.79211625 </i>
    <i name="e_0_energy">   -389.82014200 </i>
   </energy>
  </scstep>
  <scstep>
   <time name="diag">    1.58    1.58</time>
   <time name="diis">    4.78    4.80</time>
   <time name="orth">    0.49    0.49</time>
   <time name="total">    7.16    7.18</time>
   <energy>
    <i name="e_fr_energy">   -389.83392079 </i>
    <i name="e_wo_entrp">   -389.79232415 </i>
    <i name="e_0_energy">   -389.82005524 </i>
   </energy>
  </scstep>
  <scstep>
   <time name="diag">    1.57    1.58</time>
   <time name="diis">    3.86    3.87</time>
   <time name="orth">    0.49    0.49</time>
   <time name="total">    6.23    6.24</time>
   <energy>
    <i name="e_fr_energy">   -389.83388558 </i>
    <i name="e_wo_entrp">   -389.79226432 </i>
    <i name="e_0_energy">   -389.82001183 </i>
   </energy>
  </scstep>
  <scstep>
   <time name="diag">    1.57    1.57</time>
   <time name="diis">    2.83    2.83</time>
   <time name="orth">    0.49    0.49</time>
   <time name="total">    4.91    4.92</time>
   <energy>
    <i name="alphaZ">   1165.16924622 </i>
    <i name="ewald"> 409506.94201113 </i>
    <i name="hartreedc">-457503.33691731 </i>
    <i name="XCdc">    237.02933710 </i>
    <i name="pawpsdc">  57170.60631759 </i>
    <i name="pawaedc"> -55536.35916581 </i>
    <i name="eentropy">     -0.04173172 </i>
    <i name="bandstr">  -2684.87694772 </i>
    <i name="atom">  47255.03396832 </i>
    <i name="e_fr_energy">   -389.83388219 </i>
    <i name="e_wo_entrp">   -389.79215047 </i>
    <i name="e_0_energy">   -389.81997162 </i>
   </energy>
  </scstep>
  <structure>
   <crystal>
    <varray name="basis" >
     <v>      11.21440000       0.00000000       0.00000000 </v>
     <v>       5.60720000       9.71195529       0.00000000 </v>
     <v>       0.00000000       0.00000000      31.44560000 </v>
    </varray>
    <i name="volume">   3424.85826052 </i>
    <varray name="rec_basis" >
     <v>       0.08917107      -0.05148294       0.00000000 </v>
     <v>       0.00000000       0.10296588       0.00000000 </v>
     <v>       0.00000000       0.00000000       0.03180095 </v>
    </varray>
   </crystal>
   <varray name="positions" >
    <v>       0.08333000       0.33333000       0.39081000 </v>
    <v>       0.08333000       0.08333000       0.39081000 </v>
    <v>       0.33333000       0.33333000       0.39081000 </v>
    <v>       0.33333000       0.08333000       0.39081000 </v>
    <v>       0.41667000       0.16667000       0.46360000 </v>
    <v>       0.41667000       0.41667000       0.46360000 </v>
    <v>       0.16667000       0.16667000       0.46360000 </v>
    <v>       0.16667000       0.41667000       0.46360000 </v>
    <v>       0.24992021       0.00073788       0.53558213 </v>
    <v>       0.25071799       0.25078149       0.53541258 </v>
    <v>       0.49997823       0.00183639       0.53557957 </v>
    <v>       0.50146160       0.25292383       0.53739454 </v>
    <v>       0.08348913       0.33513523       0.60877191 </v>
    <v>       0.08284342       0.08597852       0.60876949 </v>
    <v>       0.33213481       0.33560058       0.60880712 </v>
    <v>       0.33343322       0.08579564       0.60873840 </v>
    <v>       0.08333000       0.83333000       0.39081000 </v>
    <v>       0.08333000       0.58333000       0.39081000 </v>
    <v>       0.33333000       0.83333000       0.39081000 </v>
    <v>       0.33333000       0.58333000       0.39081000 </v>
    <v>       0.41667000       0.66667000       0.46360000 </v>
    <v>       0.41667000       0.91667000       0.46360000 </v>
    <v>       0.16667000       0.66667000       0.46360000 </v>
    <v>       0.16667000       0.91667000       0.46360000 </v>
    <v>       0.24978862       0.50087083       0.53567888 </v>
    <v>       0.25032204       0.75029350       0.53536412 </v>
    <v>       0.50132975       0.49830243       0.53743516 </v>
    <v>       0.49993351       0.75009970       0.53548555 </v>
    <v>       0.08322605       0.83608822       0.60878273 </v>
    <v>       0.08271076       0.58579598       0.60876551 </v>
    <v>       0.33297619       0.83600911       0.60874760 </v>
    <v>       0.33120321       0.58751032       0.60869195 </v>
    <v>       0.58333000       0.33333000       0.39081000 </v>
    <v>       0.58333000       0.08333000       0.39081000 </v>
    <v>       0.83333000       0.33333000       0.39081000 </v>
    <v>       0.83333000       0.08333000       0.39081000 </v>
    <v>       0.91667000       0.16667000       0.46360000 </v>
    <v>       0.91667000       0.41667000       0.46360000 </v>
    <v>       0.66667000       0.16667000       0.46360000 </v>
    <v>       0.66667000       0.41667000       0.46360000 </v>
    <v>       0.74958145       0.00128574       0.53578231 </v>
    <v>       0.74666373       0.25288134       0.53733126 </v>
    <v>       0.99885064       0.00175608       0.53553852 </v>
    <v>       0.99943382       0.25055113       0.53535621 </v>
    <v>       0.58187897       0.33769881       0.61863714 </v>
    <v>       0.58328860       0.08525110       0.60907362 </v>
    <v>       0.83457696       0.33575062       0.60874891 </v>
    <v>       0.83382764       0.08516497       0.60894330 </v>
    <v>       0.58333000       0.83333000       0.39081000 </v>
    <v>       0.58333000       0.58333000       0.39081000 </v>
    <v>       0.83333000       0.83333000       0.39081000 </v>
    <v>       0.83333000       0.58333000       0.39081000 </v>
    <v>       0.91667000       0.66667000       0.46360000 </v>
    <v>       0.91667000       0.91667000       0.46360000 </v>
    <v>       0.66667000       0.66667000       0.46360000 </v>
    <v>       0.66667000       0.91667000       0.46360000 </v>
    <v>       0.74988387       0.50086992       0.53576907 </v>
    <v>       0.74958262       0.75104704       0.53575285 </v>
    <v>       0.99997922       0.50044658       0.53569906 </v>
    <v>       0.99968050       0.75119192       0.53575323 </v>
    <v>       0.58271828       0.83601753       0.60880555 </v>
    <v>       0.58308648       0.58744663       0.60901926 </v>
    <v>       0.83296839       0.83592610       0.60888365 </v>
    <v>       0.83335734       0.58590630       0.60885814 </v>
    <v>       0.48046910       0.38446010       0.70403567 </v>
    <v>       0.57805905       0.34967734       0.68162642 </v>
    <v>       0.68204666       0.32038149       0.69443471 </v>
   </varray>
  </structure>
  <varray name="forces" >
   <v>       0.00095013      -0.01724352      -0.05478529 </v>
   <v>       0.07373226      -0.04525065      -0.11355250 </v>
   <v>      -0.00282928      -0.01801473      -0.06203431 </v>
   <v>      -0.07399917      -0.04014814      -0.11453340 </v>
   <v>       0.05815241       0.02797611       0.00339365 </v>
   <v>       0.08621913      -0.02887604       0.27795337 </v>
   <v>       0.01761903      -0.00453507       0.01666749 </v>
   <v>       0.02933221       0.02009894       0.01021872 </v>
   <v>       0.00306629      -0.00353344       0.00174841 </v>
   <v>      -0.00353690      -0.00599652       0.00169675 </v>
   <v>       0.00783777      -0.00349521      -0.00151195 </v>
   <v>      -0.00549660      -0.00835375      -0.00842366 </v>
   <v>      -0.00397208       0.00157249      -0.00056036 </v>
   <v>      -0.00995025      -0.00415941      -0.00299850 </v>
   <v>       0.00074231       0.00029494      -0.00374390 </v>
   <v>      -0.00667590      -0.00563758       0.00051780 </v>
   <v>       0.01442460       0.00598426      -0.05378576 </v>
   <v>       0.00389428      -0.00438498      -0.04274843 </v>
   <v>      -0.00132376       0.08115805      -0.12355226 </v>
   <v>       0.01458316       0.00507832      -0.05797064 </v>
   <v>       0.00866123      -0.03453431      -0.01094069 </v>
   <v>       0.00193182       0.01509496       0.02599034 </v>
   <v>      -0.00279134      -0.01658389       0.00940986 </v>
   <v>       0.01249031       0.01565402       0.02633254 </v>
   <v>       0.00305392      -0.00762633       0.00215268 </v>
   <v>       0.00241909      -0.00107559       0.00656123 </v>
   <v>       0.00273111       0.00167535      -0.01319757 </v>
   <v>       0.00070126       0.00058225      -0.00189815 </v>
   <v>      -0.01175140       0.00106463       0.00190394 </v>
   <v>      -0.00634318       0.00440739       0.00402362 </v>
   <v>      -0.00050689      -0.00753827      -0.00216914 </v>
   <v>       0.00326838      -0.00322576       0.00061984 </v>
   <v>       0.00001053      -0.00401723      -0.05327913 </v>
   <v>      -0.01454944       0.00378747      -0.06087971 </v>
   <v>      -0.00022952      -0.01342620      -0.06180765 </v>
   <v>       0.01251561       0.00427800      -0.05830264 </v>
   <v>      -0.04879210       0.02957314      -0.01224502 </v>
   <v>      -0.02399711       0.02319772       0.00704748 </v>
   <v>      -0.00084396       0.10245431       0.29031714 </v>
   <v>      -0.07787313      -0.02369921       0.28551546 </v>
   <v>       0.00668394      -0.00119074       0.00108740 </v>
   <v>       0.00269677      -0.00353252      -0.00138374 </v>
   <v>       0.00106878       0.00091112      -0.00596851 </v>
   <v>       0.00180640      -0.00003464      -0.00095353 </v>
   <v>      -0.00657408      -0.00682052      -0.03036210 </v>
   <v>      -0.00822284      -0.00792270       0.00499693 </v>
   <v>      -0.00701028      -0.00040765       0.00064198 </v>
   <v>      -0.00597001      -0.00654309       0.00705738 </v>
   <v>      -0.01545526       0.00553933      -0.05324826 </v>
   <v>      -0.01354558       0.00606053      -0.05880385 </v>
   <v>      -0.00015864       0.00261735      -0.04729153 </v>
   <v>      -0.00648659      -0.00631596      -0.04302363 </v>
   <v>       0.00092592       0.01130144       0.07511470 </v>
   <v>      -0.01991372       0.02812450       0.02470805 </v>
   <v>      -0.00031293      -0.01361829       0.01937260 </v>
   <v>       0.01782061       0.02936310       0.02985386 </v>
   <v>      -0.00261865      -0.00166970      -0.00161820 </v>
   <v>       0.00799815      -0.00567918      -0.00076012 </v>
   <v>      -0.00300478      -0.00376669       0.00024537 </v>
   <v>       0.00666857      -0.01084241      -0.00395062 </v>
   <v>      -0.00325362      -0.00216711      -0.00215511 </v>
   <v>       0.00392493      -0.00444461       0.00441892 </v>
   <v>      -0.00215798      -0.00179664      -0.00334986 </v>
   <v>      -0.00594419       0.00277705       0.00431440 </v>
   <v>      -0.80477936       0.26661032       0.56949051 </v>
   <v>       0.76719368      -0.27917467      -0.49828965 </v>
   <v>       0.02574593      -0.03995411      -0.04729307 </v>
  </varray>
  <varray name="stress" >
   <v>     -20.01816630      -0.97553521      -1.30295966 </v>
   <v>      -0.97553521     -21.89723005       0.14015503 </v>
   <v>      -1.30295966       0.14015503     -19.28041284 </v>
  </varray>
  <energy>
   <i name="e_fr_energy">   -389.83388219 </i>
   <i name="e_wo_entrp">   -389.81997162 </i>
   <i name="e_0_energy">     -0.04173172 </i>
  </energy>
  <time name="totalsc">   62.10   62.26</time>
 </calculation>
 <calculation>
  <scstep>
   <time name="dav">   11.05   11.08</time>
   <time name="total">   11.35   11.39</time>
   <energy>
    <i name="alphaZ">   1165.16924622 </i>
    <i name="ewald"> 409500.68950092 </i>
    <i name="hartreedc">-457499.12992267 </i>
    <i name="XCdc">    236.93497176 </i>
    <i name="pawpsdc">  57170.69412571 </i>
    <i name="pawaedc"> -55536.44730285 </i>
    <i name="eentropy">     -0.04163189 </i>
    <i name="bandstr">  -2682.73061565 </i>
    <i name="atom">  47255.03396832 </i>
    <i name="e_fr_energy">   -389.82766013 </i>
    <i name="e_wo_entrp">   -389.78602824 </i>
    <i name="e_0_energy">   -389.81378283 </i>
   </energy>
  </scstep>
  <scstep>
   <time name="diag">    1.59    1.59</time>
   <time name="diis">    4.83    4.85</time>
   <time name="orth">    0.49    0.49</time>
   <time name="total">    7.22    7.24</time>
   <energy>
    <i name="e_fr_energy">   -389.83615922 </i>
    <i name="e_wo_entrp">   -389.79454390 </i>
    <i name="e_0_energy">   -389.82228744 </i>
   </energy>
  </scstep>
  <scstep>
   <time name="diag">    1.58    1.58</time>
   <time name="diis">    4.91    4.92</time>
   <time name="orth">    0.49    0.49</time>
   <time name="total">    7.28    7.30</time>
   <energy>
    <i name="e_fr_energy">   -389.83700282 </i>
    <i name="e_wo_entrp">   -389.79560066 </i>
    <i name="e_0_energy">   -389.82320210 </i>
   </energy>
  </scstep>
  <scstep>
   <time name="diag">    1.57    1.57</time>
   <time name="diis">    4.81    4.82</time>
   <time name="orth">    0.49    0.49</time>
   <time name="total">    7.18    7.20</time>
   <energy>
    <i name="e_fr_energy">   -389.83677288 </i>
    <i name="e_wo_entrp">   -389.79526609 </i>
    <i name="e_0_energy">   -389.82293729 </i>
   </energy>
  </scstep>
  <scstep>
   <time name="diag">    1.57    1.58</time>
   <time name="diis">    4.76    4.77</time>
   <time name="orth">    0.49    0.49</time>
   <time name="total">    7.13    7.15</time>
   <energy>
    <i name="e_fr_energy">   -389.83851693 </i>
    <i name="e_wo_entrp">   -389.79656403 </i>
    <i name="e_0_energy">   -389.82453263 </i>
   </energy>
  </scstep>
  <scstep>
   <time name="diag">    1.56    1.57</time>
   <time name="diis">    4.76    4.77</time>
   <time name="orth">    0.49    0.49</time>
   <time name="total">    7.12    7.14</time>
   <energy>
    <i name="e_fr_energy">   -389.83561553 </i>
    <i name="e_wo_entrp">   -389.79337813 </i>
    <i name="e_0_energy">   -389.82153639 </i>
   </energy>
  </scstep>
  <scstep>
   <time name="diag">    1.58    1.58</time>
   <time name="diis">    4.76    4.77</time>
   <time name="orth">    0.49    0.49</time>
   <time name="total">    7.13    7.15</time>
   <energy>
    <i name="e_fr_energy">   -389.83532872 </i>
    <i name="e_wo_entrp">   -389.79393203 </i>
    <i name="e_0_energy">   -389.82152982 </i>
   </energy>
  </scstep>
  <scstep>
   <time name="diag">    1.57    1.57</time>
   <time name="diis">    4.72    4.73</time>
   <time name="orth">    0.49    0.49</time>
   <time name="total">    7.09    7.11</time>
   <energy>
    <i name="e_fr_energy">   -389.83534308 </i>
    <i name="e_wo_entrp">   -389.79336305 </i>
    <i name="e_0_energy">   -389.82134974 </i>
   </energy>
  </scstep>
  <scstep>
   <time name="diag">    1.58    1.58</time>
   <time name="diis">    4.13    4.14</time>
   <time name="orth">    0.49    0.49</time>
   <time name="total">    6.50    6.52</time>
   <energy>
    <i name="e_fr_energy">   -389.83529150 </i>
    <i name="e_wo_entrp">   -389.79368980 </i>
    <i name="e_0_energy">   -389.82142426 </i>
   </energy>
  </scstep>
  <scstep>
   <time name="diag">    1.57    1.57</time>
   <time name="diis">    2.81    2.81</time>
   <time name="orth">    0.49    0.49</time>
   <time name="total">    4.89    4.90</time>
   <energy>
    <i name="alphaZ">   1165.16924622 </i>
    <i name="ewald"> 409500.68950092 </i>
    <i name="hartreedc">-457494.78985634 </i>
    <i name="XCdc">    236.88309364 </i>
    <i name="pawpsdc">  57138.68097384 </i>
    <i name="pawaedc"> -55504.41369744 </i>
    <i name="eentropy">     -0.04160346 </i>
    <i name="bandstr">  -2687.04692150 </i>
    <i name="atom">  47255.03396832 </i>
    <i name="e_fr_energy">   -389.83529579 </i>
    <i name="e_wo_entrp">   -389.79369233 </i>
    <i name="e_0_energy">   -389.82142797 </i>
   </energy>
  </scstep>
  <structure>
   <crystal>
    <varray name="basis" >
     <v>      11.21440000       0.00000000       0.00000000 </v>
     <v>       5.60720000       9.71195529       0.00000000 </v>
     <v>       0.00000000       0.00000000      31.44560000 </v>
    </varray>
    <i name="volume">   3424.85826052 </i>
    <varray name="rec_basis" >
     <v>       0.08917107      -0.05148294       0.00000000 </v>
     <v>       0.00000000       0.10296588       0.00000000 </v>
     <v>       0.00000000       0.00000000       0.03180095 </v>
    </varray>
   </crystal>
   <varray name="positions" >
    <v>       0.08333000       0.33333000       0.39081000 </v>
    <v>       0.08333000       0.08333000       0.39081000 </v>
    <v>       0.33333000       0.33333000       0.39081000 </v>
    <v>       0.33333000       0.08333000       0.39081000 </v>
    <v>       0.41667000       0.16667000       0.46360000 </v>
    <v>       0.41667000       0.41667000       0.46360000 </v>
    <v>       0.16667000       0.16667000       0.46360000 </v>
    <v>       0.16667000       0.41667000       0.46360000 </v>
    <v>       0.24992021       0.00073788       0.53558213 </v>
    <v>       0.25071799       0.25078149       0.53541258 </v>
    <v>       0.49997823       0.00183639       0.53557957 </v>
[...]
       <r>   -19.5118     0.0000     2.0000 </r>
       <r>   -19.4113     0.0000     2.0000 </r>
       <r>   -19.3107     0.0000     2.0000 </r>
       <r>   -19.2102     0.0000     2.0000 </r>
       <r>   -19.1096     0.0000     2.0000 </r>
       <r>   -19.0091     0.0000     2.0000 </r>
       <r>   -18.9085     0.0000     2.0000 </r>
       <r>   -18.8079     0.0000     2.0000 </r>
       <r>   -18.7074     0.0000     2.0000 </r>
       <r>   -18.6068     0.0000     2.0000 </r>
       <r>   -18.5063     0.0000     2.0000 </r>
       <r>   -18.4057     0.0000     2.0000 </r>
       <r>   -18.3052     0.0000     2.0000 </r>
       <r>   -18.2046     0.0000     2.0000 </r>
       <r>   -18.1040     0.0000     2.0000 </r>
       <r>   -18.0035     0.0000     2.0000 </r>
       <r>   -17.9029     0.0000     2.0000 </r>
       <r>   -17.8024     0.0000     2.0000 </r>
       <r>   -17.7018     0.0000     2.0000 </r>
       <r>   -17.6013     0.0000     2.0000 </r>
       <r>   -17.5007     0.0000     2.0000 </r>
       <r>   -17.4001     0.0000     2.0000 </r>
       <r>   -17.2996     0.0000     2.0000 </r>
       <r>   -17.1990     0.0000     2.0000 </r>
       <r>   -17.0985     0.0000     2.0000 </r>
       <r>   -16.9979     0.0000     2.0000 </r>
       <r>   -16.8974     0.0000     2.0000 </r>
       <r>   -16.7968     0.0000     2.0000 </r>
       <r>   -16.6963     0.0000     2.0000 </r>
       <r>   -16.5957     0.0000     2.0000 </r>
       <r>   -16.4951     0.0000     2.0000 </r>
       <r>   -16.3946     0.0000     2.0000 </r>
       <r>   -16.2940     0.0000     2.0000 </r>
       <r>   -16.1935     0.0000     2.0000 </r>
       <r>   -16.0929     0.0000     2.0000 </r>
       <r>   -15.9924     0.0000     2.0000 </r>
       <r>   -15.8918     0.0000     2.0000 </r>
       <r>   -15.7912     0.0000     2.0000 </r>
       <r>   -15.6907     0.0000     2.0000 </r>
       <r>   -15.5901     0.0000     2.0000 </r>
       <r>   -15.4896     0.0000     2.0000 </r>
       <r>   -15.3890     0.0000     2.0000 </r>
       <r>   -15.2885     0.0000     2.0000 </r>
       <r>   -15.1879     0.0000     2.0000 </r>
       <r>   -15.0873     0.0000     2.0000 </r>
       <r>   -14.9868     0.0000     2.0000 </r>
       <r>   -14.8862     0.0000     2.0000 </r>
       <r>   -14.7857     0.0000     2.0000 </r>
       <r>   -14.6851     0.0000     2.0000 </r>
       <r>   -14.5846     0.0000     2.0000 </r>
       <r>   -14.4840     0.0000     2.0000 </r>
       <r>   -14.3834     0.0000     2.0000 </r>
       <r>   -14.2829     0.0000     2.0000 </r>
       <r>   -14.1823     0.0000     2.0000 </r>
       <r>   -14.0818     0.0000     2.0000 </r>
       <r>   -13.9812     0.0000     2.0000 </r>
       <r>   -13.8807     0.0000     2.0000 </r>
       <r>   -13.7801     0.0000     2.0000 </r>
       <r>   -13.6795     0.0000     2.0000 </r>
       <r>   -13.5790     0.0000     2.0000 </r>
       <r>   -13.4784     0.0000     2.0000 </r>
       <r>   -13.3779     0.0000     2.0000 </r>
       <r>   -13.2773     0.0000     2.0000 </r>
       <r>   -13.1768     0.0000     2.0000 </r>
       <r>   -13.0762     0.0000     2.0000 </r>
       <r>   -12.9756     0.0000     2.0000 </r>
       <r>   -12.8751     0.0000     2.0000 </r>
       <r>   -12.7745     0.0000     2.0000 </r>
       <r>   -12.6740     0.0000     2.0000 </r>
       <r>   -12.5734     0.0000     2.0000 </r>
       <r>   -12.4729     0.0000     2.0000 </r>
       <r>   -12.3723     0.0000     2.0000 </r>
       <r>   -12.2718     0.0000     2.0000 </r>
       <r>   -12.1712    -0.0000     2.0000 </r>
       <r>   -12.0706    -0.0000     2.0000 </r>
       <r>   -11.9701    -0.0000     2.0000 </r>
       <r>   -11.8695    -0.0000     2.0000 </r>
       <r>   -11.7690    -0.0000     2.0000 </r>
       <r>   -11.6684    -0.0016     1.9998 </r>
       <r>   -11.5679    -0.1490     1.9848 </r>
       <r>   -11.4673    -0.3710     1.9475 </r>
       <r>   -11.3667    10.3750     2.9908 </r>
       <r>   -11.2662    10.5360     4.0503 </r>
       <r>   -11.1656    -0.3439     4.0157 </r>
       <r>   -11.0651    -0.1544     4.0002 </r>
       <r>   -10.9645    -0.0017     4.0000 </r>
       <r>   -10.8640    -0.0000     4.0000 </r>
       <r>   -10.7634    -0.0000     4.0000 </r>
       <r>   -10.6628    -0.0000     4.0000 </r>
       <r>   -10.5623    -0.0000     4.0000 </r>
       <r>   -10.4617    -0.0008     3.9999 </r>
       <r>   -10.3612    -0.0277     3.9971 </r>
       <r>   -10.2606     0.0486     4.0020 </r>
       <r>   -10.1601     0.8531     4.0878 </r>
       <r>   -10.0595     4.5711     4.5475 </r>
       <r>    -9.9589     3.2883     4.8781 </r>
       <r>    -9.8584     0.8309     4.9617 </r>
       <r>    -9.7578     5.8288     5.5478 </r>
       <r>    -9.6573     6.1617     6.1674 </r>
       <r>    -9.5567     2.2905     6.3977 </r>
       <r>    -9.4562    -0.6621     6.3311 </r>
       <r>    -9.3556     3.4391     6.6770 </r>
       <r>    -9.2550    10.5399     7.7368 </r>
       <r>    -9.1545     2.3032     7.9684 </r>
       <r>    -9.0539     5.1268     8.4840 </r>
       <r>    -8.9534     1.5808     8.6429 </r>
       <r>    -8.8528     0.3119     8.6743 </r>
       <r>    -8.7523     8.6444     9.5435 </r>
       <r>    -8.6517    16.5221    11.2050 </r>
       <r>    -8.5511     6.9547    11.9043 </r>
       <r>    -8.4506     7.5753    12.6660 </r>
       <r>    -8.3500    11.5025    13.8227 </r>
       <r>    -8.2495     1.6348    13.9871 </r>
       <r>    -8.1489     0.8559    14.0732 </r>
       <r>    -8.0484    22.3616    16.3218 </r>
       <r>    -7.9478    22.7544    18.6099 </r>
       <r>    -7.8473    13.9451    20.0122 </r>
       <r>    -7.7467    17.5787    21.7798 </r>
       <r>    -7.6461     6.6536    22.4489 </r>
       <r>    -7.5456    25.1271    24.9756 </r>
       <r>    -7.4450    51.3680    30.1410 </r>
       <r>    -7.3445    49.6600    35.1346 </r>
       <r>    -7.2439    33.3791    38.4911 </r>
       <r>    -7.1434    55.7567    44.0978 </r>
       <r>    -7.0428    67.2148    50.8568 </r>
       <r>    -6.9422    52.2752    56.1134 </r>
       <r>    -6.8417    56.1415    61.7588 </r>
       <r>    -6.7411    65.2139    68.3165 </r>
       <r>    -6.6406    70.9849    75.4545 </r>
       <r>    -6.5400    97.4560    85.2544 </r>
       <r>    -6.4395   106.7693    95.9908 </r>
       <r>    -6.3389    98.8875   105.9346 </r>
       <r>    -6.2383    99.7529   115.9654 </r>
       <r>    -6.1378    89.9808   125.0136 </r>
       <r>    -6.0372    72.4849   132.3024 </r>
       <r>    -5.9367    68.1037   139.1507 </r>
       <r>    -5.8361    57.9194   144.9749 </r>
       <r>    -5.7356    27.9923   147.7897 </r>
       <r>    -5.6350    75.7808   155.4100 </r>
       <r>    -5.5344   102.9206   165.7594 </r>
       <r>    -5.4339    80.4873   173.8529 </r>
       <r>    -5.3333    74.2440   181.3187 </r>
       <r>    -5.2328    83.7767   189.7430 </r>
       <r>    -5.1322    96.2351   199.4201 </r>
       <r>    -5.0317    80.4939   207.5143 </r>
       <r>    -4.9311    77.6654   215.3241 </r>
       <r>    -4.8305    57.9912   221.1555 </r>
       <r>    -4.7300    76.7044   228.8686 </r>
       <r>    -4.6294    96.1520   238.5374 </r>
       <r>    -4.5289   109.6530   249.5637 </r>
       <r>    -4.4283   131.4946   262.7864 </r>
       <r>    -4.3278   125.2876   275.3849 </r>
       <r>    -4.2272    94.3899   284.8765 </r>
       <r>    -4.1266   130.7794   298.0272 </r>
       <r>    -4.0261   155.1618   313.6298 </r>
       <r>    -3.9255   148.6473   328.5773 </r>
       <r>    -3.8250   142.7526   342.9321 </r>
       <r>    -3.7244   145.0615   357.5190 </r>
       <r>    -3.6239   148.6762   372.4694 </r>
       <r>    -3.5233   121.7175   384.7089 </r>
       <r>    -3.4228    73.7962   392.1296 </r>
       <r>    -3.3222    78.4717   400.0205 </r>
       <r>    -3.2216    73.8435   407.4460 </r>
       <r>    -3.1211    64.6790   413.9499 </r>
       <r>    -3.0205    99.1848   423.9236 </r>
       <r>    -2.9200   151.2933   439.1371 </r>
       <r>    -2.8194   126.2538   451.8328 </r>
       <r>    -2.7189    82.4950   460.1283 </r>
       <r>    -2.6183    79.6447   468.1371 </r>
       <r>    -2.5177    74.8294   475.6617 </r>
       <r>    -2.4172    87.9475   484.5054 </r>
       <r>    -2.3166    87.9996   493.3544 </r>
       <r>    -2.2161   103.4529   503.7572 </r>
       <r>    -2.1155   104.5487   514.2703 </r>
       <r>    -2.0150   141.7013   528.5194 </r>
       <r>    -1.9144   140.6556   542.6632 </r>
       <r>    -1.8138   113.7162   554.0982 </r>
       <r>    -1.7133    94.0856   563.5591 </r>
       <r>    -1.6127    50.5235   568.6396 </r>
       <r>    -1.5122    93.3084   578.0224 </r>
       <r>    -1.4116   116.6713   589.7545 </r>
       <r>    -1.3111   115.1168   601.3303 </r>
       <r>    -1.2105    85.9421   609.9723 </r>
       <r>    -1.1099   113.4120   621.3767 </r>
       <r>    -1.0094   144.4687   635.9040 </r>
       <r>    -0.9088   166.3531   652.6319 </r>
       <r>    -0.8083   125.4648   665.2483 </r>
       <r>    -0.7077   101.9902   675.5041 </r>
       <r>    -0.6072    97.1510   685.2733 </r>
       <r>    -0.5066    47.1396   690.0135 </r>
       <r>    -0.4060     7.1774   690.7352 </r>
       <r>    -0.3055    24.2522   693.1739 </r>
       <r>    -0.2049    24.8555   695.6733 </r>
       <r>    -0.1044    15.8678   697.2689 </r>
       <r>    -0.0038    22.4731   699.5288 </r>
       <r>     0.0967    28.2813   702.3727 </r>
       <r>     0.1973    22.4425   704.6294 </r>
       <r>     0.2979    35.8354   708.2329 </r>
       <r>     0.3984    28.3878   711.0875 </r>
       <r>     0.4990    20.9759   713.1968 </r>
       <r>     0.5995    15.0521   714.7103 </r>
       <r>     0.7001     5.9848   715.3122 </r>
       <r>     0.8006     2.9236   715.6061 </r>
       <r>     0.9012    13.6605   716.9798 </r>
       <r>     1.0017    23.4672   719.3396 </r>
       <r>     1.1023    28.1537   722.1706 </r>
       <r>     1.2029    23.6024   724.5440 </r>
       <r>     1.3034    26.2754   727.1862 </r>
       <r>     1.4040    33.4431   730.5491 </r>
       <r>     1.5045    24.4758   733.0103 </r>
       <r>     1.6051    25.2137   735.5457 </r>
       <r>     1.7056    15.3714   737.0914 </r>
       <r>     1.8062    14.5395   738.5535 </r>
       <r>     1.9068    16.6925   740.2320 </r>
       <r>     2.0073    17.5585   741.9977 </r>
       <r>     2.1079    26.5832   744.6708 </r>
       <r>     2.2084    19.1310   746.5945 </r>
       <r>     2.3090    15.3516   748.1382 </r>
       <r>     2.4095    27.6735   750.9210 </r>
       <r>     2.5101    21.3022   753.0631 </r>
       <r>     2.6107    13.7628   754.4470 </r>
       <r>     2.7112    17.4848   756.2052 </r>
       <r>     2.8118    24.4795   758.6668 </r>
       <r>     2.9123    25.4467   761.2257 </r>
       <r>     3.0129    28.8709   764.1288 </r>
       <r>     3.1134    15.1384   765.6511 </r>
       <r>     3.2140     8.0128   766.4568 </r>
       <r>     3.3146    17.6751   768.2342 </r>
       <r>     3.4151    38.0292   772.0583 </r>
       <r>     3.5157    17.5291   773.8210 </r>
       <r>     3.6162    11.9710   775.0247 </r>
       <r>     3.7168    13.5125   776.3835 </r>
       <r>     3.8173     9.1975   777.3084 </r>
       <r>     3.9179     1.8204   777.4914 </r>
       <r>     4.0185    13.1810   778.8169 </r>
       <r>     4.1190    16.8124   780.5075 </r>
       <r>     4.2196    18.2563   782.3433 </r>
       <r>     4.3201     9.2108   783.2695 </r>
       <r>     4.4207     2.7679   783.5478 </r>
       <r>     4.5212     4.4383   783.9941 </r>
       <r>     4.6218     0.1563   784.0098 </r>
       <r>     4.7224    -0.0957   784.0002 </r>
       <r>     4.8229    -0.0020   784.0000 </r>
       <r>     4.9235    -0.0000   784.0000 </r>
       <r>     5.0240    -0.0000   784.0000 </r>
       <r>     5.1246    -0.0000   784.0000 </r>
       <r>     5.2251     0.0000   784.0000 </r>
       <r>     5.3257     0.0000   784.0000 </r>
       <r>     5.4262     0.0000   784.0000 </r>
       <r>     5.5268     0.0000   784.0000 </r>
       <r>     5.6274     0.0000   784.0000 </r>
       <r>     5.7279     0.0000   784.0000 </r>
       <r>     5.8285     0.0000   784.0000 </r>
      </set>
     </set>
    </array>
   </total>
  </dos>
 </calculation>
 <structure name="finalpos" >
  <crystal>
   <varray name="basis" >
    <v>      11.21440000       0.00000000       0.00000000 </v>
    <v>       5.60720000       9.71195529       0.00000000 </v>
    <v>       0.00000000       0.00000000      31.44560000 </v>
   </varray>
   <i name="volume">   3424.85826052 </i>
   <varray name="rec_basis" >
    <v>       0.08917107      -0.05148294       0.00000000 </v>
    <v>       0.00000000       0.10296588       0.00000000 </v>
    <v>       0.00000000       0.00000000       0.03180095 </v>
   </varray>
  </crystal>
  <varray name="positions" >
   <v>       0.08333000       0.33333000       0.39081000 </v>
   <v>       0.08333000       0.08333000       0.39081000 </v>
   <v>       0.33333000       0.33333000       0.39081000 </v>
   <v>       0.33333000       0.08333000       0.39081000 </v>
   <v>       0.41667000       0.16667000       0.46360000 </v>
   <v>       0.41667000       0.41667000       0.46360000 </v>
   <v>       0.16667000       0.16667000       0.46360000 </v>
   <v>       0.16667000       0.41667000       0.46360000 </v>
   <v>       0.24992021       0.00073788       0.53558213 </v>
   <v>       0.25071799       0.25078149       0.53541258 </v>
   <v>       0.49997823       0.00183639       0.53557957 </v>
   <v>       0.50146160       0.25292383       0.53739454 </v>
   <v>       0.08348913       0.33513523       0.60877191 </v>
   <v>       0.08284342       0.08597852       0.60876949 </v>
   <v>       0.33213481       0.33560058       0.60880712 </v>
   <v>       0.33343322       0.08579564       0.60873840 </v>
   <v>       0.08333000       0.83333000       0.39081000 </v>
   <v>       0.08333000       0.58333000       0.39081000 </v>
   <v>       0.33333000       0.83333000       0.39081000 </v>
   <v>       0.33333000       0.58333000       0.39081000 </v>
   <v>       0.41667000       0.66667000       0.46360000 </v>
   <v>       0.41667000       0.91667000       0.46360000 </v>
   <v>       0.16667000       0.66667000       0.46360000 </v>
   <v>       0.16667000       0.91667000       0.46360000 </v>
   <v>       0.24978862       0.50087083       0.53567888 </v>
   <v>       0.25032204       0.75029350       0.53536412 </v>
   <v>       0.50132975       0.49830243       0.53743516 </v>
   <v>       0.49993351       0.75009970       0.53548555 </v>
   <v>       0.08322605       0.83608822       0.60878273 </v>
   <v>       0.08271076       0.58579598       0.60876551 </v>
   <v>       0.33297619       0.83600911       0.60874760 </v>
   <v>       0.33120321       0.58751032       0.60869195 </v>
   <v>       0.58333000       0.33333000       0.39081000 </v>
   <v>       0.58333000       0.08333000       0.39081000 </v>
   <v>       0.83333000       0.33333000       0.39081000 </v>
   <v>       0.83333000       0.08333000       0.39081000 </v>
   <v>       0.91667000       0.16667000       0.46360000 </v>
   <v>       0.91667000       0.41667000       0.46360000 </v>
   <v>       0.66667000       0.16667000       0.46360000 </v>
   <v>       0.66667000       0.41667000       0.46360000 </v>
   <v>       0.74958145       0.00128574       0.53578231 </v>
   <v>       0.74666373       0.25288134       0.53733126 </v>
   <v>       0.99885064       0.00175608       0.53553852 </v>
   <v>       0.99943382       0.25055113       0.53535621 </v>
   <v>       0.58187897       0.33769881       0.61863714 </v>
   <v>       0.58328860       0.08525110       0.60907362 </v>
   <v>       0.83457696       0.33575062       0.60874891 </v>
   <v>       0.83382764       0.08516497       0.60894330 </v>
   <v>       0.58333000       0.83333000       0.39081000 </v>
   <v>       0.58333000       0.58333000       0.39081000 </v>
   <v>       0.83333000       0.83333000       0.39081000 </v>
   <v>       0.83333000       0.58333000       0.39081000 </v>
   <v>       0.91667000       0.66667000       0.46360000 </v>
   <v>       0.91667000       0.91667000       0.46360000 </v>
   <v>       0.66667000       0.66667000       0.46360000 </v>
   <v>       0.66667000       0.91667000       0.46360000 </v>
   <v>       0.74988387       0.50086992       0.53576907 </v>
   <v>       0.74958262       0.75104704       0.53575285 </v>
   <v>       0.99997922       0.50044658       0.53569906 </v>
   <v>       0.99968050       0.75119192       0.53575323 </v>
   <v>       0.58271828       0.83601753       0.60880555 </v>
   <v>       0.58308648       0.58744663       0.60901926 </v>
   <v>       0.83296839       0.83592610       0.60888365 </v>
   <v>       0.83335734       0.58590630       0.60885814 </v>
   <v>       0.47913154       0.38446010       0.70403567 </v>
   <v>       0.57805905       0.34967734       0.68162642 </v>
   <v>       0.68204666       0.32038149       0.69395769 </v>
  </varray>
  <varray name="selective"  type="logical" >
   <v type="logical" >  F  F  F </v>
   <v type="logical" >  F  F  F </v>
   <v type="logical" >  F  F  F </v>
   <v type="logical" >  F  F  F </v>
   <v type="logical" >  F  F  F </v>
   <v type="logical" >  F  F  F </v>
   <v type="logical" >  F  F  F </v>
   <v type="logical" >  F  F  F </v>
   <v type="logical" >  F  F  F </v>
   <v type="logical" >  F  F  F </v>
   <v type="logical" >  F  F  F </v>
   <v type="logical" >  F  F  F </v>
   <v type="logical" >  F  F  F </v>
   <v type="logical" >  F  F  F </v>
   <v type="logical" >  F  F  F </v>
   <v type="logical" >  F  F  F </v>
   <v type="logical" >  F  F  F </v>
   <v type="logical" >  F  F  F </v>
   <v type="logical" >  F  F  F </v>
   <v type="logical" >  F  F  F </v>
   <v type="logical" >  F  F  F </v>
   <v type="logical" >  F  F  F </v>
   <v type="logical" >  F  F  F </v>
   <v type="logical" >  F  F  F </v>
   <v type="logical" >  F  F  F </v>
   <v type="logical" >  F  F  F </v>
   <v type="logical" >  F  F  F </v>
   <v type="logical" >  F  F  F </v>
   <v type="logical" >  F  F  F </v>
   <v type="logical" >  F  F  F </v>
   <v type="logical" >  F  F  F </v>
   <v type="logical" >  F  F  F </v>
   <v type="logical" >  F  F  F </v>
   <v type="logical" >  F  F  F </v>
   <v type="logical" >  F  F  F </v>
   <v type="logical" >  F  F  F </v>
   <v type="logical" >  F  F  F </v>
   <v type="logical" >  F  F  F </v>
   <v type="logical" >  F  F  F </v>
   <v type="logical" >  F  F  F </v>
   <v type="logical" >  F  F  F </v>
   <v type="logical" >  F  F  F </v>
   <v type="logical" >  F  F  F </v>
   <v type="logical" >  F  F  F </v>
   <v type="logical" >  F  F  F </v>
   <v type="logical" >  F  F  F </v>
   <v type="logical" >  F  F  F </v>
   <v type="logical" >  F  F  F </v>
   <v type="logical" >  F  F  F </v>
   <v type="logical" >  F  F  F </v>
   <v type="logical" >  F  F  F </v>
   <v type="logical" >  F  F  F </v>
   <v type="logical" >  F  F  F </v>
   <v type="logical" >  F  F  F </v>
   <v type="logical" >  F  F  F </v>
   <v type="logical" >  F  F  F </v>
   <v type="logical" >  F  F  F </v>
   <v type="logical" >  F  F  F </v>
   <v type="logical" >  F  F  F </v>
   <v type="logical" >  F  F  F </v>
   <v type="logical" >  F  F  F </v>
   <v type="logical" >  F  F  F </v>
   <v type="logical" >  F  F  F </v>
   <v type="logical" >  F  F  F </v>
   <v type="logical" >  T  T  T </v>
   <v type="logical" >  T  T  T </v>
   <v type="logical" >  T  T  T </v>
  </varray>
  <nose>
   <v>      -3.00000000       0.00000000       0.00010000       0.00010000 </v>
  </nose>
 </structure>
</modeling>
