   4   4   0   0
  0.1532745E+02  0.3943150E-09  0.3943150E-09  0.3943150E-09  0.5000000E-15
  1.000000000000000E-004
  CAR 
 Pt                                      
     18.58367305     -0.20670889  301     10.62857584      1.00000000
     -0.207  0.0000E+00  0.0000E+00
     -0.144  0.0000E+00  0.0000E+00
     -0.081  0.0000E+00  0.0000E+00
     -0.019 -0.2038E-32 -0.1276E-33
      0.044 -0.3334E-28 -0.2088E-29
      0.106 -0.2471E-24 -0.1548E-25
      0.169 -0.8304E-21 -0.5203E-22
      0.232 -0.1226E-17 -0.7683E-19
      0.294 -0.8395E-15 -0.5266E-16
      0.357 -0.2605E-12 -0.1637E-13
      0.420 -0.3674E-10 -0.2318E-11
      0.482 -0.2371E-08 -0.1508E-09
      0.545 -0.7063E-07 -0.4575E-08
      0.608 -0.9741E-06 -0.6559E-07
      0.670 -0.5907E-05 -0.4356E-06
      0.733 -0.9905E-05 -0.1056E-05
      0.795  0.4568E-04  0.1805E-05
      0.858  0.2271E-03  0.1603E-04
      0.921  0.3942E-03  0.4072E-04
      0.983  0.4698E-03  0.7015E-04
      1.046  0.7226E-03  0.1154E-03
      1.109  0.8469E-03  0.1685E-03
      1.171  0.6182E-03  0.2072E-03
      1.234  0.7904E-03  0.2567E-03
      1.297  0.1166E-02  0.3297E-03
      1.359  0.1102E-02  0.3987E-03
      1.422  0.1055E-02  0.4648E-03
      1.484  0.1280E-02  0.5450E-03
      1.547  0.1013E-02  0.6084E-03
      1.610  0.1016E-02  0.6721E-03
      1.672  0.1629E-02  0.7741E-03
      1.735  0.1726E-02  0.8822E-03
      1.798  0.1741E-02  0.9912E-03
      1.860  0.1556E-02  0.1089E-02
      1.923  0.9388E-03  0.1148E-02
      1.986  0.1297E-02  0.1229E-02
      2.048  0.2235E-02  0.1369E-02
      2.111  0.2316E-02  0.1514E-02
      2.173  0.2112E-02  0.1646E-02
      2.236  0.1825E-02  0.1760E-02
      2.299  0.1605E-02  0.1861E-02
      2.361  0.2129E-02  0.1994E-02
      2.424  0.2414E-02  0.2145E-02
      2.487  0.2192E-02  0.2283E-02
      2.549  0.2143E-02  0.2417E-02
      2.612  0.2210E-02  0.2555E-02
      2.674  0.3007E-02  0.2744E-02
      2.737  0.3394E-02  0.2956E-02
      2.800  0.2690E-02  0.3125E-02
      2.862  0.2622E-02  0.3289E-02
      2.925  0.2561E-02  0.3449E-02
      2.988  0.2126E-02  0.3583E-02
      3.050  0.3077E-02  0.3775E-02
      3.113  0.4628E-02  0.4065E-02
      3.176  0.4868E-02  0.4370E-02
      3.238  0.3619E-02  0.4597E-02
      3.301  0.2461E-02  0.4751E-02
      3.363  0.3379E-02  0.4963E-02
      3.426  0.5503E-02  0.5307E-02
      3.489  0.5414E-02  0.5646E-02
      3.551  0.4837E-02  0.5949E-02
      3.614  0.6769E-02  0.6373E-02
      3.677  0.8837E-02  0.6927E-02
      3.739  0.9993E-02  0.7553E-02
      3.802  0.1084E-01  0.8232E-02
      3.865  0.1176E-01  0.8969E-02
      3.927  0.1175E-01  0.9705E-02
      3.990  0.1297E-01  0.1052E-01
      4.052  0.1529E-01  0.1147E-01
      4.115  0.1489E-01  0.1241E-01
      4.178  0.1723E-01  0.1349E-01
      4.240  0.2160E-01  0.1484E-01
      4.303  0.2136E-01  0.1618E-01
      4.366  0.1987E-01  0.1742E-01
      4.428  0.2289E-01  0.1886E-01
      4.491  0.2724E-01  0.2056E-01
      4.554  0.2793E-01  0.2231E-01
      4.616  0.2780E-01  0.2405E-01
      4.679  0.3002E-01  0.2593E-01
      4.741  0.3020E-01  0.2782E-01
      4.804  0.2921E-01  0.2965E-01
      4.867  0.3018E-01  0.3154E-01
      4.929  0.2724E-01  0.3325E-01
      4.992  0.2509E-01  0.3482E-01
      5.055  0.2855E-01  0.3661E-01
      5.117  0.2893E-01  0.3842E-01
      5.180  0.2436E-01  0.3995E-01
      5.243  0.2328E-01  0.4141E-01
      5.305  0.2807E-01  0.4316E-01
      5.368  0.2782E-01  0.4491E-01
      5.430  0.2107E-01  0.4623E-01
      5.493  0.1967E-01  0.4746E-01
      5.556  0.2069E-01  0.4875E-01
      5.618  0.1971E-01  0.4999E-01
      5.681  0.1856E-01  0.5115E-01
      5.744  0.1752E-01  0.5225E-01
      5.806  0.2112E-01  0.5357E-01
      5.869  0.2983E-01  0.5544E-01
      5.931  0.2997E-01  0.5732E-01
      5.994  0.2562E-01  0.5892E-01
      6.057  0.2718E-01  0.6062E-01
      6.119  0.2692E-01  0.6231E-01
      6.182  0.2577E-01  0.6392E-01
      6.245  0.2794E-01  0.6567E-01
      6.307  0.3140E-01  0.6764E-01
      6.370  0.3263E-01  0.6969E-01
      6.433  0.2881E-01  0.7149E-01
      6.495  0.2711E-01  0.7319E-01
      6.558  0.3041E-01  0.7509E-01
      6.620  0.3101E-01  0.7703E-01
      6.683  0.3030E-01  0.7893E-01
      6.746  0.3367E-01  0.8104E-01
      6.808  0.3421E-01  0.8318E-01
      6.871  0.3256E-01  0.8522E-01
      6.934  0.3593E-01  0.8747E-01
      6.996  0.3547E-01  0.8970E-01
      7.059  0.3338E-01  0.9179E-01
      7.122  0.4005E-01  0.9429E-01
      7.184  0.4341E-01  0.9701E-01
      7.247  0.4076E-01  0.9957E-01
      7.309  0.4459E-01  0.1024E+00
      7.372  0.4954E-01  0.1055E+00
      7.435  0.5089E-01  0.1087E+00
      7.497  0.5205E-01  0.1119E+00
      7.560  0.4219E-01  0.1146E+00
      7.623  0.3272E-01  0.1166E+00
      7.685  0.3090E-01  0.1185E+00
      7.748  0.2672E-01  0.1202E+00
      7.811  0.2436E-01  0.1217E+00
      7.873  0.2796E-01  0.1235E+00
      7.936  0.2918E-01  0.1253E+00
      7.998  0.2628E-01  0.1270E+00
      8.061  0.2351E-01  0.1284E+00
      8.124  0.2170E-01  0.1298E+00
      8.186  0.2167E-01  0.1312E+00
      8.249  0.2255E-01  0.1326E+00
      8.312  0.2272E-01  0.1340E+00
      8.374  0.2322E-01  0.1354E+00
      8.437  0.2548E-01  0.1370E+00
      8.500  0.2786E-01  0.1388E+00
      8.562  0.3115E-01  0.1407E+00
      8.625  0.3180E-01  0.1427E+00
      8.687  0.3031E-01  0.1446E+00
      8.750  0.3103E-01  0.1466E+00
      8.813  0.3312E-01  0.1486E+00
      8.875  0.3330E-01  0.1507E+00
      8.938  0.2888E-01  0.1525E+00
      9.001  0.2653E-01  0.1542E+00
      9.063  0.3026E-01  0.1561E+00
      9.126  0.3147E-01  0.1581E+00
      9.188  0.2586E-01  0.1597E+00
      9.251  0.2166E-01  0.1610E+00
      9.314  0.2301E-01  0.1625E+00
      9.376  0.2462E-01  0.1640E+00
      9.439  0.2659E-01  0.1657E+00
      9.502  0.2663E-01  0.1674E+00
      9.564  0.2305E-01  0.1688E+00
      9.627  0.2016E-01  0.1701E+00
      9.690  0.1904E-01  0.1713E+00
      9.752  0.2242E-01  0.1727E+00
      9.815  0.2671E-01  0.1743E+00
      9.877  0.2699E-01  0.1760E+00
      9.940  0.2623E-01  0.1777E+00
     10.003  0.2440E-01  0.1792E+00
     10.065  0.2064E-01  0.1805E+00
     10.128  0.1987E-01  0.1817E+00
     10.191  0.2602E-01  0.1834E+00
     10.253  0.3310E-01  0.1854E+00
     10.316  0.3387E-01  0.1876E+00
     10.379  0.3091E-01  0.1895E+00
     10.441  0.3076E-01  0.1914E+00
     10.504  0.3913E-01  0.1939E+00
     10.566  0.4985E-01  0.1970E+00
     10.629  0.4836E-01  0.2000E+00
     10.692  0.3885E-01  0.2025E+00
     10.754  0.3156E-01  0.2044E+00
     10.817  0.2877E-01  0.2062E+00
     10.880  0.2601E-01  0.2079E+00
     10.942  0.2128E-01  0.2092E+00
     11.005  0.2070E-01  0.2105E+00
     11.068  0.1959E-01  0.2117E+00
     11.130  0.1191E-01  0.2125E+00
     11.193  0.4134E-02  0.2127E+00
     11.255  0.1038E-02  0.2128E+00
     11.318  0.2128E-02  0.2129E+00
     11.381  0.4556E-02  0.2132E+00
     11.443  0.7907E-02  0.2137E+00
     11.506  0.1148E-01  0.2144E+00
     11.569  0.9693E-02  0.2150E+00
     11.631  0.5026E-02  0.2153E+00
     11.694  0.2923E-02  0.2155E+00
     11.757  0.2711E-02  0.2157E+00
     11.819  0.3616E-02  0.2159E+00
     11.882  0.4202E-02  0.2162E+00
     11.944  0.5349E-02  0.2165E+00
     12.007  0.9095E-02  0.2171E+00
     12.070  0.1031E-01  0.2177E+00
     12.132  0.6581E-02  0.2182E+00
     12.195  0.3389E-02  0.2184E+00
     12.258  0.2939E-02  0.2185E+00
     12.320  0.4190E-02  0.2188E+00
     12.383  0.5104E-02  0.2191E+00
     12.445  0.5844E-02  0.2195E+00
     12.508  0.7141E-02  0.2199E+00
     12.571  0.6718E-02  0.2204E+00
     12.633  0.5977E-02  0.2207E+00
     12.696  0.5567E-02  0.2211E+00
     12.759  0.4665E-02  0.2214E+00
     12.821  0.4851E-02  0.2217E+00
     12.884  0.6865E-02  0.2221E+00
     12.947  0.8740E-02  0.2227E+00
     13.009  0.7144E-02  0.2231E+00
     13.072  0.3264E-02  0.2233E+00
     13.134  0.2679E-02  0.2235E+00
     13.197  0.4213E-02  0.2237E+00
     13.260  0.4524E-02  0.2240E+00
     13.322  0.4985E-02  0.2243E+00
     13.385  0.7224E-02  0.2248E+00
     13.448  0.8311E-02  0.2253E+00
     13.510  0.6807E-02  0.2257E+00
     13.573  0.5245E-02  0.2261E+00
     13.636  0.4614E-02  0.2264E+00
     13.698  0.4548E-02  0.2266E+00
     13.761  0.5239E-02  0.2270E+00
     13.823  0.6715E-02  0.2274E+00
     13.886  0.6057E-02  0.2278E+00
     13.949  0.4186E-02  0.2280E+00
     14.011  0.4349E-02  0.2283E+00
     14.074  0.4424E-02  0.2286E+00
     14.137  0.4153E-02  0.2288E+00
     14.199  0.5317E-02  0.2292E+00
     14.262  0.5788E-02  0.2295E+00
     14.325  0.5291E-02  0.2299E+00
     14.387  0.5923E-02  0.2302E+00
     14.450  0.5963E-02  0.2306E+00
     14.512  0.4977E-02  0.2309E+00
     14.575  0.3871E-02  0.2312E+00
     14.638  0.4364E-02  0.2314E+00
     14.700  0.6592E-02  0.2319E+00
     14.763  0.5969E-02  0.2322E+00
     14.826  0.4131E-02  0.2325E+00
     14.888  0.3340E-02  0.2327E+00
     14.951  0.2914E-02  0.2329E+00
     15.014  0.3781E-02  0.2331E+00
     15.076  0.5251E-02  0.2334E+00
     15.139  0.6447E-02  0.2338E+00
     15.201  0.5681E-02  0.2342E+00
     15.264  0.3672E-02  0.2344E+00
     15.327  0.3464E-02  0.2346E+00
     15.389  0.3604E-02  0.2349E+00
     15.452  0.3771E-02  0.2351E+00
     15.515  0.5078E-02  0.2354E+00
     15.577  0.5068E-02  0.2357E+00
     15.640  0.3486E-02  0.2360E+00
     15.702  0.4145E-02  0.2362E+00
     15.765  0.5011E-02  0.2365E+00
     15.828  0.4316E-02  0.2368E+00
     15.890  0.3508E-02  0.2370E+00
     15.953  0.2850E-02  0.2372E+00
     16.016  0.3730E-02  0.2374E+00
     16.078  0.4902E-02  0.2377E+00
     16.141  0.4225E-02  0.2380E+00
     16.204  0.3229E-02  0.2382E+00
     16.266  0.2963E-02  0.2384E+00
     16.329  0.3081E-02  0.2386E+00
     16.391  0.2878E-02  0.2388E+00
     16.454  0.2690E-02  0.2389E+00
     16.517  0.3254E-02  0.2391E+00
     16.579  0.2957E-02  0.2393E+00
     16.642  0.1107E-02  0.2394E+00
     16.705  0.1528E-03  0.2394E+00
     16.767  0.8853E-03  0.2395E+00
     16.830  0.1899E-02  0.2396E+00
     16.893  0.1778E-02  0.2397E+00
     16.955  0.8004E-03  0.2397E+00
     17.018  0.2138E-03  0.2398E+00
     17.080  0.4135E-03  0.2398E+00
     17.143  0.5997E-03  0.2398E+00
     17.206  0.6721E-03  0.2399E+00
     17.268  0.9216E-03  0.2399E+00
     17.331  0.5569E-03  0.2400E+00
     17.394  0.3324E-04  0.2400E+00
     17.456 -0.4683E-04  0.2400E+00
     17.519  0.1157E-03  0.2400E+00
     17.582  0.3191E-03  0.2400E+00
     17.644  0.2498E-03  0.2400E+00
     17.707  0.4475E-04  0.2400E+00
     17.769 -0.1531E-04  0.2400E+00
     17.832 -0.5391E-05  0.2400E+00
     17.895 -0.5215E-06  0.2400E+00
     17.957 -0.1987E-07  0.2400E+00
     18.020 -0.3230E-09  0.2400E+00
     18.083 -0.2305E-11  0.2400E+00
     18.145 -0.7322E-14  0.2400E+00
     18.208 -0.1042E-16  0.2400E+00
     18.271  0.0000E+00  0.2400E+00
     18.333  0.0000E+00  0.2400E+00
     18.396  0.0000E+00  0.2400E+00
     18.458  0.0000E+00  0.2400E+00
     18.521  0.0000E+00  0.2400E+00
     18.584  0.0000E+00  0.2400E+00
