    4    4  200    1
  0.1532745E+02  0.3943150E-09  0.3943150E-09  0.3943150E-09  0.5000000E-15
  1.000000000000000E-004
  CAR 
 Pt                                      
     40   2052     24
 
  0.0000000E+00  0.0000000E+00  0.0000000E+00  0.2441406E-03
    1        0.793291   1.000000
    2        3.925535   1.000000
    3        3.925544   1.000000
    4        3.925638   1.000000
    5        4.358400   1.000000
    6        4.358400   1.000000
    7        4.358400   1.000000
    8        7.050248   1.000000
    9        7.050250   1.000000
   10        7.050250   1.000000
   11        9.099995   1.000000
   12        9.099995   1.000000
   13       10.648279   0.336790
   14       10.648294   0.336677
   15       10.648444   0.335489
   16       11.100624  -0.000000
   17       11.100631  -0.000000
   18       11.100650  -0.000000
   19       11.100855  -0.000000
   20       11.100875  -0.000000
   21       11.100881  -0.000000
   22       12.486590  -0.000000
   23       12.486591  -0.000000
   24       12.486591  -0.000000
 
  0.6250000E-01  0.0000000E+00  0.0000000E+00  0.4882812E-03
    1        0.844376   1.000000
    2        3.944705   1.000000
    3        3.963071   1.000000
    4        3.963144   1.000000
    5        4.379214   1.000000
    6        4.389829   1.000000
    7        4.389829   1.000000
    8        7.016903   1.000000
    9        7.076129   1.000000
   10        7.076131   1.000000
   11        9.063211   1.000000
   12        9.113259   1.000000
   13       10.593261   0.779203
   14       10.593376   0.778414
   15       10.631544   0.474895
   16       10.720584  -0.014723
   17       10.720584  -0.014723
   18       11.034254  -0.000000
   19       11.034255  -0.000000
   20       11.100801  -0.000000
   21       11.101059  -0.000000
   22       12.200457  -0.000000
   23       12.895367  -0.000000
   24       12.895367  -0.000000
 
  0.1250000E+00  0.0000000E+00  0.0000000E+00  0.4882812E-03
    1        0.996509   1.000000
    2        3.998289   1.000000
    3        4.073556   1.000000
    4        4.073633   1.000000
    5        4.441081   1.000000
    6        4.483759   1.000000
    7        4.483759   1.000000
    8        6.919418   1.000000
    9        7.153590   1.000000
   10        7.153592   1.000000
   11        8.955720   1.000000
   12        9.152696   1.000000
   13       10.041617   1.000000
   14       10.041617   1.000000
   15       10.431211   1.008697
   16       10.431328   1.008729
   17       10.581879   0.851421
   18       10.844020  -0.004704
   19       10.844020  -0.004704
   20       11.101153  -0.000000
   21       11.101410  -0.000000
   22       11.490283  -0.000000
   23       13.658640   0.000000
   24       13.658640   0.000000
 
  0.1875000E+00  0.0000000E+00  0.0000000E+00  0.4882812E-03
    1        1.246107   1.000000
    2        4.074066   1.000000
    3        4.250432   1.000000
    4        4.250516   1.000000
    5        4.542969   1.000000
    6        4.639872   1.000000
    7        4.639872   1.000000
    8        6.764947   1.000000
    9        7.281897   1.000000
   10        7.281899   1.000000
   11        8.785659   1.000000
   12        9.217232   1.000000
   13        9.333090   1.000000
   14        9.333090   1.000000
   15       10.173438   1.000000
   16       10.173560   1.000000
   17       10.502409   1.035258
   18       10.555696   0.969528
   19       10.555696   0.969527
   20       10.600231   0.729520
   21       11.101677  -0.000000
   22       11.101935  -0.000000
   23       14.504946   0.000000
   24       14.504946   0.000000
 
  0.2500000E+00  0.0000000E+00  0.0000000E+00  0.4882812E-03
    1        1.586462   1.000000
    2        4.147651   1.000000
    3        4.481164   1.000000
    4        4.481257   1.000000
    5        4.682718   1.000000
    6        4.857569   1.000000
    7        4.857569   1.000000
    8        6.564135   1.000000
    9        7.460026   1.000000
   10        7.460027   1.000000
   11        8.567562   1.000000
   12        8.645696   1.000000
   13        8.645696   1.000000
   14        9.305073   1.000000
   15        9.697441   1.000000
   16        9.842178   1.000000
   17        9.842308   1.000000
   18       10.200339   1.000000
   19       10.200339   1.000000
   20       10.396823   1.002516
   21       11.102301  -0.000000
   22       11.102559  -0.000000
   23       15.378767   0.000000
   24       15.378767   0.000000
 
  0.3125000E+00  0.0000000E+00  0.0000000E+00  0.4882812E-03
    1        2.006224   1.000000
    2        4.177502   1.000000
    3        4.744110   1.000000
    4        4.744217   1.000000
    5        4.857461   1.000000
    6        5.135970   1.000000
    7        5.135970   1.000000
    8        6.329241   1.000000
    9        7.686163   1.000000
   10        7.686165   1.000000
   11        7.994836   1.000000
   12        7.994836   1.000000
   13        8.322973   1.000000
   14        8.891981   1.000000
   15        9.413649   1.000000
   16        9.473833   1.000000
   17        9.473975   1.000000
   18        9.807652   1.000000
   19        9.807653   1.000000
   20       10.270546   1.000003
   21       11.102930  -0.000000
   22       11.103187  -0.000000
   23       16.257848   0.000000
   24       16.257848   0.000000
 
  0.3750000E+00  0.0000000E+00  0.0000000E+00  0.4882812E-03
    1        2.486511   1.000000
    2        4.103549   1.000000
    3        5.003391   1.000000
    4        5.003515   1.000000
    5        5.063232   1.000000
    6        5.473980   1.000000
    7        5.473980   1.000000
    8        6.073383   1.000000
    9        7.387908   1.000000
   10        7.387908   1.000000
   11        7.957936   1.000000
   12        7.957938   1.000000
   13        8.082210   1.000000
   14        8.274383   1.000000
   15        9.122105   1.000000
   16        9.122263   1.000000
   17        9.402101   1.000000
   18        9.402102   1.000000
   19        9.539867   1.000000
   20       10.129514   1.000000
   21       11.103476  -0.000000
   22       11.103734  -0.000000
   23       17.125850   0.000000
   24       17.125867   0.000000
 
  0.4375000E+00  0.0000000E+00  0.0000000E+00  0.4882812E-03
    1        2.995533   1.000000
    2        3.871241   1.000000
    3        5.204012   1.000000
    4        5.204154   1.000000
    5        5.294882   1.000000
    6        5.808644   1.000000
    7        5.870060   1.000000
    8        5.870060   1.000000
    9        6.829398   1.000000
   10        6.829398   1.000000
   11        7.888685   1.000000
   12        7.911478   1.000000
   13        8.271586   1.000000
   14        8.271587   1.000000
   15        8.858154   1.000000
   16        8.858329   1.000000
   17        9.002109   1.000000
   18        9.002110   1.000000
   19        9.679495   1.000000
   20        9.979878   1.000000
   21       11.103684  -0.000000
   22       11.103942  -0.000000
   23       17.578719   0.000000
   24       17.583673   0.000000
 
  0.5000000E+00  0.0000000E+00  0.0000000E+00  0.2441406E-03
    1        3.481221   1.000000
    2        3.481316   1.000000
    3        5.281594   1.000000
    4        5.281744   1.000000
    5        5.545889   1.000000
    6        5.546095   1.000000
    7        6.322473   1.000000
    8        6.322475   1.000000
    9        6.322611   1.000000
   10        6.322612   1.000000
   11        7.804843   1.000000
   12        7.804997   1.000000
   13        8.621936   1.000000
   14        8.621937   1.000000
   15        8.622122   1.000000
   16        8.622124   1.000000
   17        8.758089   1.000000
   18        8.758272   1.000000
   19        9.827836   1.000000
   20        9.828050   1.000000
   21       11.103783  -0.000000
   22       11.104041  -0.000000
   23       17.540995   0.000000
   24       17.541128   0.000000
 
  0.0000000E+00  0.6250000E-01  0.0000000E+00  0.4882812E-03
    1        0.844376   1.000000
    2        3.944704   1.000000
    3        3.963073   1.000000
    4        3.963142   1.000000
    5        4.379214   1.000000
    6        4.389829   1.000000
    7        4.389829   1.000000
    8        7.016902   1.000000
    9        7.076130   1.000000
   10        7.076130   1.000000
   11        9.063211   1.000000
   12        9.113259   1.000000
   13       10.593264   0.779182
   14       10.593373   0.778435
   15       10.631544   0.474895
   16       10.720584  -0.014723
   17       10.720584  -0.014723
   18       11.034254  -0.000000
   19       11.034255  -0.000000
   20       11.100808  -0.000000
   21       11.101052  -0.000000
   22       12.200457  -0.000000
   23       12.895367  -0.000000
   24       12.895368  -0.000000
 
  0.6250000E-01  0.6250000E-01  0.0000000E+00  0.4882812E-03
    1        0.895122   1.000000
    2        3.982388   1.000000
    3        3.982444   1.000000
    4        3.998276   1.000000
    5        4.410349   1.000000
    6        4.410351   1.000000
    7        4.422654   1.000000
    8        7.000012   1.000000
    9        7.086165   1.000000
   10        7.100729   1.000000
   11        9.052103   1.000000
   12        9.102618   1.000000
   13       10.480954   1.028698
   14       10.530870   1.022579
   15       10.530995   1.022431
   16       10.540644   1.007651
   17       10.675390   0.147897
   18       10.675522   0.147132
   19       11.034264  -0.000000
   20       11.034267  -0.000000
   21       11.059718  -0.000000
   22       12.630797  -0.000000
   23       12.630834  -0.000000
   24       13.204903  -0.000000
 
  0.1250000E+00  0.6250000E-01  0.0000000E+00  0.4882812E-03
    1        1.046242   1.000000
    2        4.036549   1.000000
    3        4.093471   1.000000
    4        4.101823   1.000000
    5        4.471566   1.000000
    6        4.503631   1.000000
    7        4.520839   1.000000
    8        6.912369   1.000000
    9        7.155540   1.000000
   10        7.174130   1.000000
   11        8.956745   1.000000
   12        9.135337   1.000000
   13        9.915938   1.000000
   14        9.916251   1.000000
   15       10.292809   1.000011
   16       10.385147   1.001545
   17       10.446504   1.013648
   18       10.588914   0.808165
   19       10.843818  -0.004738
   20       11.034297  -0.000000
   21       11.036732  -0.000000
   22       12.004498  -0.000000
   23       13.388217   0.000000
   24       13.878401   0.000000
 
  0.1875000E+00  0.6250000E-01  0.0000000E+00  0.4882812E-03
    1        1.294180   1.000000
    2        4.113150   1.000000
    3        4.268103   1.000000
    4        4.271388   1.000000
    5        4.572317   1.000000
    6        4.658607   1.000000
    7        4.683027   1.000000
    8        6.762511   1.000000
    9        7.281923   1.000000
   10        7.294772   1.000000
   11        8.793030   1.000000
   12        9.203335   1.000000
   13        9.215725   1.000000
   14        9.261250   1.000000
   15        9.859013   1.000000
   16       10.136841   1.000000
   17       10.192670   1.000000
   18       10.468634   1.023093
   19       10.555218   0.971052
   20       11.030678  -0.000000
   21       11.034404  -0.000000
   22       11.304125  -0.000000
   23       14.202083   0.000000
   24       14.678622   0.000000
 
  0.2500000E+00  0.6250000E-01  0.0000000E+00  0.4882812E-03
    1        1.632286   1.000000
    2        4.187747   1.000000
    3        4.487260   1.000000
    4        4.503756   1.000000
    5        4.710508   1.000000
    6        4.874654   1.000000
    7        4.905665   1.000000
    8        6.565707   1.000000
    9        7.458658   1.000000
   10        7.459293   1.000000
   11        8.537730   1.000000
   12        8.585167   1.000000
   13        8.603271   1.000000
   14        9.264931   1.000000
   15        9.297514   1.000000
   16        9.816152   1.000000
   17        9.868797   1.000000
   18       10.199586   1.000000
   19       10.265954   1.000002
   20       10.743644  -0.034525
   21       11.029316  -0.000000
   22       11.034443  -0.000000
   23       15.014319   0.000000
   24       15.526690   0.000000
 
  0.3125000E+00  0.6250000E-01  0.0000000E+00  0.4882812E-03
    1        2.049380   1.000000
    2        4.218286   1.000000
    3        4.743377   1.000000
    4        4.769113   1.000000
    5        4.883280   1.000000
    6        5.150849   1.000000
    7        5.181721   1.000000
    8        6.335030   1.000000
    9        7.652441   1.000000
   10        7.685218   1.000000
   11        7.898290   1.000000
   12        7.970652   1.000000
   13        8.366938   1.000000
   14        8.626879   1.000000
   15        9.414584   1.000000
   16        9.458385   1.000000
   17        9.506537   1.000000
   18        9.806682   1.000000
   19        9.911037   1.000000
   20       10.419773   1.005954
   21       11.029600  -0.000000
   22       11.034352  -0.000000
   23       15.779524   0.000000
   24       16.390152   0.000000
 
  0.3750000E+00  0.6250000E-01  0.0000000E+00  0.4882812E-03
    1        2.526886   1.000000
    2        4.143827   1.000000
    3        5.007141   1.000000
    4        5.031549   1.000000
    5        5.086613   1.000000
    6        5.485899   1.000000
    7        5.502443   1.000000
    8        6.083194   1.000000
    9        7.305538   1.000000
   10        7.375918   1.000000
   11        7.804398   1.000000
   12        7.956772   1.000000
   13        8.096854   1.000000
   14        8.237247   1.000000
   15        9.116975   1.000000
   16        9.156403   1.000000
   17        9.400877   1.000000
   18        9.488672   1.000000
   19        9.550952   1.000000
   20       10.215837   1.000000
   21       11.030513  -0.000000
   22       11.034042  -0.000000
   23       16.423787   0.000000
   24       17.248536   0.000000
 
  0.4375000E+00  0.6250000E-01  0.0000000E+00  0.4882812E-03
    1        3.033675   1.000000
    2        3.909800   1.000000
    3        5.222010   1.000000
    4        5.234930   1.000000
    5        5.315408   1.000000
    6        5.822310   1.000000
    7        5.866683   1.000000
    8        5.878185   1.000000
    9        6.765844   1.000000
   10        6.826138   1.000000
   11        7.759862   1.000000
   12        7.781107   1.000000
   13        8.270326   1.000000
   14        8.389603   1.000000
   15        8.864359   1.000000
   16        8.887624   1.000000
   17        9.000876   1.000000
   18        9.078977   1.000000
   19        9.702799   1.000000
   20       10.036983   1.000000
   21       11.031612  -0.000000
   22       11.033458  -0.000000
   23       16.851401   0.000000
   24       17.238066   0.000000
 
  0.5000000E+00  0.6250000E-01  0.0000000E+00  0.4882812E-03
    1        3.518617   1.000000
    2        3.518711   1.000000
    3        5.310646   1.000000
    4        5.310795   1.000000
    5        5.563171   1.000000
    6        5.563375   1.000000
    7        6.285253   1.000000
    8        6.285386   1.000000
    9        6.325714   1.000000
   10        6.325850   1.000000
   11        7.694012   1.000000
   12        7.694127   1.000000
   13        8.620665   1.000000
   14        8.620849   1.000000
   15        8.704496   1.000000
   16        8.704620   1.000000
   17        8.776742   1.000000
   18        8.776924   1.000000
   19        9.865922   1.000000
   20        9.866112   1.000000
   21       11.032515  -0.000000
   22       11.032768  -0.000000
   23       17.079624   0.000000
   24       17.079725   0.000000
 
 -0.4375000E+00  0.6250000E-01  0.0000000E+00  0.4882812E-03
    1        3.033675   1.000000
    2        3.909800   1.000000
    3        5.222010   1.000000
    4        5.234930   1.000000
    5        5.315408   1.000000
    6        5.822310   1.000000
    7        5.866683   1.000000
    8        5.878184   1.000000
    9        6.765844   1.000000
   10        6.826138   1.000000
   11        7.759862   1.000000
   12        7.781107   1.000000
   13        8.270326   1.000000
   14        8.389603   1.000000
   15        8.864360   1.000000
   16        8.887624   1.000000
   17        9.000876   1.000000
   18        9.078977   1.000000
   19        9.702799   1.000000
   20       10.036983   1.000000
   21       11.031612  -0.000000
   22       11.033458  -0.000000
   23       16.851402   0.000000
   24       17.238066   0.000000
 
 -0.3750000E+00  0.6250000E-01  0.0000000E+00  0.4882812E-03
    1        2.526886   1.000000
    2        4.143827   1.000000
    3        5.007141   1.000000
    4        5.031549   1.000000
    5        5.086613   1.000000
    6        5.485899   1.000000
    7        5.502443   1.000000
    8        6.083194   1.000000
    9        7.305538   1.000000
   10        7.375918   1.000000
   11        7.804398   1.000000
   12        7.956773   1.000000
   13        8.096854   1.000000
   14        8.237247   1.000000
   15        9.116976   1.000000
   16        9.156402   1.000000
   17        9.400877   1.000000
   18        9.488672   1.000000
   19        9.550952   1.000000
   20       10.215837   1.000000
   21       11.030513  -0.000000
   22       11.034042  -0.000000
   23       16.423788   0.000000
   24       17.252669   0.000000
 
 -0.3125000E+00  0.6250000E-01  0.0000000E+00  0.4882812E-03
    1        2.049380   1.000000
    2        4.218286   1.000000
    3        4.743377   1.000000
    4        4.769113   1.000000
    5        4.883280   1.000000
    6        5.150849   1.000000
    7        5.181720   1.000000
    8        6.335030   1.000000
    9        7.652441   1.000000
   10        7.685218   1.000000
   11        7.898290   1.000000
   12        7.970652   1.000000
   13        8.366938   1.000000
   14        8.626879   1.000000
   15        9.414584   1.000000
   16        9.458385   1.000000
   17        9.506537   1.000000
   18        9.806682   1.000000
   19        9.911037   1.000000
   20       10.419773   1.005954
   21       11.029600  -0.000000
   22       11.034352  -0.000000
   23       15.779525   0.000000
   24       16.390152   0.000000
 
 -0.2500000E+00  0.6250000E-01  0.0000000E+00  0.4882812E-03
    1        1.632286   1.000000
    2        4.187747   1.000000
    3        4.487260   1.000000
    4        4.503756   1.000000
    5        4.710508   1.000000
    6        4.874654   1.000000
    7        4.905665   1.000000
    8        6.565707   1.000000
    9        7.458658   1.000000
   10        7.459293   1.000000
   11        8.537730   1.000000
   12        8.585167   1.000000
   13        8.603271   1.000000
   14        9.264931   1.000000
   15        9.297514   1.000000
   16        9.816152   1.000000
   17        9.868797   1.000000
   18       10.199586   1.000000
   19       10.265954   1.000002
   20       10.743644  -0.034525
   21       11.029316  -0.000000
   22       11.034442  -0.000000
   23       15.014319   0.000000
   24       15.526690   0.000000
 
 -0.1875000E+00  0.6250000E-01  0.0000000E+00  0.4882812E-03
    1        1.294180   1.000000
    2        4.113150   1.000000
    3        4.268103   1.000000
    4        4.271388   1.000000
    5        4.572317   1.000000
    6        4.658607   1.000000
    7        4.683027   1.000000
    8        6.762511   1.000000
    9        7.281923   1.000000
   10        7.294772   1.000000
   11        8.793030   1.000000
   12        9.203335   1.000000
   13        9.215724   1.000000
   14        9.261251   1.000000
   15        9.859013   1.000000
   16       10.136841   1.000000
   17       10.192670   1.000000
   18       10.468634   1.023093
   19       10.555218   0.971052
   20       11.030678  -0.000000
   21       11.034404  -0.000000
   22       11.304126  -0.000000
   23       14.202083   0.000000
   24       14.678622   0.000000
 
 -0.1250000E+00  0.6250000E-01  0.0000000E+00  0.4882812E-03
    1        1.046242   1.000000
    2        4.036549   1.000000
    3        4.093471   1.000000
    4        4.101823   1.000000
    5        4.471566   1.000000
    6        4.503631   1.000000
    7        4.520839   1.000000
    8        6.912369   1.000000
    9        7.155540   1.000000
   10        7.174129   1.000000
   11        8.956745   1.000000
   12        9.135337   1.000000
   13        9.915938   1.000000
   14        9.916250   1.000000
   15       10.292808   1.000011
   16       10.385148   1.001545
   17       10.446504   1.013648
   18       10.588914   0.808164
   19       10.843818  -0.004738
   20       11.034297  -0.000000
   21       11.036732  -0.000000
   22       12.004498  -0.000000
   23       13.388217   0.000000
   24       13.878401   0.000000
 
 -0.6250000E-01  0.6250000E-01  0.0000000E+00  0.4882812E-03
    1        0.895122   1.000000
    2        3.982388   1.000000
    3        3.982444   1.000000
    4        3.998276   1.000000
    5        4.410349   1.000000
    6        4.410351   1.000000
    7        4.422654   1.000000
    8        7.000011   1.000000
    9        7.086166   1.000000
   10        7.100729   1.000000
   11        9.052103   1.000000
   12        9.102618   1.000000
   13       10.480954   1.028698
   14       10.530870   1.022580
   15       10.530995   1.022431
   16       10.540644   1.007651
   17       10.675391   0.147896
   18       10.675522   0.147131
   19       11.034264  -0.000000
   20       11.034267  -0.000000
   21       11.059718  -0.000000
   22       12.630797  -0.000000
   23       12.630834  -0.000000
   24       13.204903  -0.000000
 
  0.0000000E+00  0.1250000E+00  0.0000000E+00  0.4882812E-03
    1        0.996509   1.000000
    2        3.998289   1.000000
    3        4.073558   1.000000
    4        4.073631   1.000000
    5        4.441081   1.000000
    6        4.483759   1.000000
    7        4.483759   1.000000
    8        6.919418   1.000000
    9        7.153591   1.000000
   10        7.153591   1.000000
   11        8.955720   1.000000
   12        9.152696   1.000000
   13       10.041617   1.000000
   14       10.041617   1.000000
   15       10.431214   1.008698
   16       10.431325   1.008728
   17       10.581879   0.851421
   18       10.844020  -0.004704
   19       10.844020  -0.004704
   20       11.101160  -0.000000
   21       11.101404  -0.000000
   22       11.490283  -0.000000
   23       13.658640   0.000000
   24       13.658640   0.000000
 
  0.6250000E-01  0.1250000E+00  0.0000000E+00  0.4882812E-03
    1        1.046242   1.000000
    2        4.036549   1.000000
    3        4.093471   1.000000
    4        4.101823   1.000000
    5        4.471566   1.000000
    6        4.503631   1.000000
    7        4.520839   1.000000
    8        6.912369   1.000000
    9        7.155540   1.000000
   10        7.174130   1.000000
   11        8.956745   1.000000
   12        9.135337   1.000000
   13        9.915938   1.000000
   14        9.916251   1.000000
   15       10.292809   1.000011
   16       10.385147   1.001545
   17       10.446504   1.013648
   18       10.588914   0.808165
   19       10.843818  -0.004738
   20       11.034298  -0.000000
   21       11.036731  -0.000000
   22       12.004497  -0.000000
   23       13.388217   0.000000
   24       13.878401   0.000000
 
  0.1250000E+00  0.1250000E+00  0.0000000E+00  0.4882812E-03
    1        1.194336   1.000000
    2        4.149266   1.000000
    3        4.149320   1.000000
    4        4.186159   1.000000
    5        4.562810   1.000000
    6        4.562816   1.000000
    7        4.630222   1.000000
    8        6.861662   1.000000
    9        7.192925   1.000000
   10        7.234908   1.000000
   11        8.919663   1.000000
   12        9.126261   1.000000
   13        9.555539   1.000000
   14        9.604941   1.000000
   15        9.605091   1.000000
   16       10.248294   1.000001
   17       10.432904   1.009171
   18       10.432969   1.009190
   19       10.843252  -0.004836
   20       10.843265  -0.004834
   21       10.938023  -0.000055
   22       12.756777  -0.000000
   23       12.756852  -0.000000
   24       14.425049   0.000000
 
  0.1875000E+00  0.1250000E+00  0.0000000E+00  0.4882812E-03
    1        1.437304   1.000000
    2        4.228621   1.000000
    3        4.325303   1.000000
    4        4.330328   1.000000
    5        4.660195   1.000000
    6        4.714418   1.000000
    7        4.805941   1.000000
    8        6.740302   1.000000
    9        7.298602   1.000000
   10        7.332719   1.000000
   11        8.793267   1.000000
   12        8.916791   1.000000
   13        9.043618   1.000000
   14        9.169887   1.000000
   15        9.185616   1.000000
   16       10.026652   1.000000
   17       10.202995   1.000000
   18       10.345595   1.000234
   19       10.553819   0.975393
   20       10.842395  -0.004988
   21       10.879389  -0.001117
   22       12.035405  -0.000000
   23       13.520332   0.000000
   24       15.138724   0.000000
 
  0.2500000E+00  0.1250000E+00  0.0000000E+00  0.4882812E-03
    1        1.768665   1.000000
    2        4.306440   1.000000
    3        4.516414   1.000000
    4        4.567635   1.000000
    5        4.793734   1.000000
    6        4.925495   1.000000
    7        5.036750   1.000000
    8        6.562867   1.000000
    9        7.458048   1.000000
   10        7.466466   1.000000
   11        8.261595   1.000000
   12        8.472654   1.000000
   13        8.616356   1.000000
   14        8.658364   1.000000
   15        9.294468   1.000000
   16        9.736046   1.000000
   17        9.904008   1.000000
   18       10.169075   1.000000
   19       10.197473   1.000000
   20       10.841033  -0.005237
   21       10.851243  -0.003594
   22       11.385779  -0.000000
   23       14.255191   0.000000
   24       15.931574   0.000000
 
  0.3125000E+00  0.1250000E+00  0.0000000E+00  0.4882812E-03
    1        2.177652   1.000000
    2        4.339040   1.000000
    3        4.753211   1.000000
    4        4.840396   1.000000
    5        4.960414   1.000000
    6        5.194941   1.000000
    7        5.304737   1.000000
    8        6.347818   1.000000
    9        7.581775   1.000000
   10        7.650108   1.000000
   11        7.687646   1.000000
   12        7.895436   1.000000
   13        8.144457   1.000000
   14        8.449424   1.000000
   15        9.408215   1.000000
   16        9.436823   1.000000
   17        9.563050   1.000000
   18        9.804012   1.000000
   19        9.892444   1.000000
   20       10.838572  -0.005712
   21       10.839326  -0.005563
   22       10.882243  -0.000981
   23       14.925555   0.000000
   24       16.759323   0.000000
 
  0.3750000E+00  0.1250000E+00  0.0000000E+00  0.4882812E-03
    1        2.646645   1.000000
    2        4.262827   1.000000
    3        5.019510   1.000000
    4        5.112966   1.000000
    5        5.156323   1.000000
    6        5.521131   1.000000
    7        5.585707   1.000000
    8        6.109882   1.000000
    9        7.090889   1.000000
   10        7.338214   1.000000
   11        7.628029   1.000000
   12        7.730157   1.000000
   13        7.956656   1.000000
   14        8.397363   1.000000
   15        9.095884   1.000000
   16        9.224047   1.000000
   17        9.397954   1.000000
   18        9.536897   1.000000
   19        9.605715   1.000000
   20       10.520727   1.031472
   21       10.833522  -0.006792
   22       10.837263  -0.005978
   23       15.492623   0.000000
   24       16.775836   0.000000
 
  0.4375000E+00  0.1250000E+00  0.0000000E+00  0.4882812E-03
    1        3.146403   1.000000
    2        4.023274   1.000000
    3        5.268639   1.000000
    4        5.325937   1.000000
    5        5.376308   1.000000
    6        5.861647   1.000000
    7        5.865780   1.000000
    8        5.901914   1.000000
    9        6.595885   1.000000
   10        6.815108   1.000000
   11        7.502730   1.000000
   12        7.553433   1.000000
   13        8.268719   1.000000
   14        8.540125   1.000000
   15        8.873624   1.000000
   16        8.950062   1.000000
   17        8.998022   1.000000
   18        9.161476   1.000000
   19        9.797012   1.000000
   20       10.244327   1.000000
   21       10.832425  -0.007046
   22       10.835145  -0.006429
   23       15.930942   0.000000
   24       16.516688   0.000000
 
  0.5000000E+00  0.1250000E+00  0.0000000E+00  0.4882812E-03
    1        3.628694   1.000000
    2        3.628784   1.000000
    3        5.395283   1.000000
    4        5.395428   1.000000
    5        5.613936   1.000000
    6        5.614134   1.000000
    7        6.184759   1.000000
    8        6.184877   1.000000
    9        6.334472   1.000000
   10        6.334602   1.000000
   11        7.469545   1.000000
   12        7.469618   1.000000
   13        8.618225   1.000000
   14        8.618401   1.000000
   15        8.816208   1.000000
   16        8.816212   1.000000
   17        8.816867   1.000000
   18        8.817036   1.000000
   19       10.008668   1.000000
   20       10.008794   1.000000
   21       10.833215  -0.006862
   22       10.833453  -0.006807
   23       16.254751   0.000000
   24       16.254821   0.000000
 
 -0.4375000E+00  0.1250000E+00  0.0000000E+00  0.4882812E-03
    1        3.146403   1.000000
    2        4.023274   1.000000
    3        5.268639   1.000000
    4        5.325937   1.000000
    5        5.376308   1.000000
    6        5.861647   1.000000
    7        5.865780   1.000000
    8        5.901914   1.000000
    9        6.595885   1.000000
   10        6.815109   1.000000
   11        7.502730   1.000000
   12        7.553433   1.000000
   13        8.268719   1.000000
   14        8.540125   1.000000
   15        8.873624   1.000000
   16        8.950061   1.000000
   17        8.998022   1.000000
   18        9.161476   1.000000
   19        9.797013   1.000000
   20       10.244327   1.000000