 running on   64 total cores
 distrk:  each k-point on   64 cores,    1 groups
 distr:  one band on    8 cores,    8 groups
 using from now: INCAR     
 vasp.5.4.4.18Apr17-6-g9f103f2a35 (build May 23 2022 10:35:18) complex          
  
 POSCAR found type information on POSCAR  Pt
 POSCAR found :  1 types and       4 ions
 scaLAPACK will be used

 ----------------------------------------------------------------------------- 
|                                                                             |
|  ADVICE TO THIS USER RUNNING 'VASP/VAMP'   (HEAR YOUR MASTER'S VOICE ...):  |
|                                                                             |
|      You have a (more or less) 'small supercell' and for smaller cells      |
|      it is recommended  to use the reciprocal-space projection scheme!      |
|      The real space optimization is not  efficient for small cells and it   |
|      is also less accurate ...                                              |
|      Therefore set LREAL=.FALSE. in the  INCAR file                         |
|                                                                             |
 ----------------------------------------------------------------------------- 

 LDA part: xc-table for Pade appr. of Perdew
 POSCAR found type information on POSCAR  Pt
 POSCAR found :  1 types and       4 ions
 POSCAR, INCAR and KPOINTS ok, starting setup
 FFT: planning ...
 WAVECAR not read
 entering main loop
       N       E                     dE             d eps       ncg     rms          rms(c)
DAV:   1     0.206881581761E+03    0.20688E+03   -0.17768E+04102000   0.128E+03
DAV:   2    -0.209419395510E+02   -0.22782E+03   -0.22238E+03121160   0.298E+02
DAV:   3    -0.258611934393E+02   -0.49193E+01   -0.48392E+01107184   0.447E+01
DAV:   4    -0.259177424127E+02   -0.56549E-01   -0.56209E-01109648   0.463E+00
DAV:   5    -0.259185238631E+02   -0.78145E-03   -0.78112E-03109832   0.527E-01    0.246E+01
RMM:   6    -0.245546198962E+02    0.13639E+01   -0.30207E+00 98496   0.120E+01    0.131E+01
RMM:   7    -0.244145902604E+02    0.14003E+00   -0.87508E-01 98496   0.610E+00    0.425E+00
RMM:   8    -0.243978467575E+02    0.16744E-01   -0.72116E-02 98497   0.187E+00    0.141E+00
RMM:   9    -0.243960672686E+02    0.17795E-02   -0.52218E-03100660   0.435E-01    0.461E-02
RMM:  10    -0.243960853598E+02   -0.18091E-04   -0.14429E-04 73571   0.422E-02    0.167E-02
RMM:  11    -0.243960866191E+02   -0.12593E-05   -0.65330E-06 52290   0.155E-02

 ----------------------------------------------------------------------------- 
|                                                                             |
|  ADVICE TO THIS USER RUNNING 'VASP/VAMP'   (HEAR YOUR MASTER'S VOICE ...):  |
|                                                                             |
|      Your highest band is occupied at some k-points! Unless you are         |
|      performing a calculation for an insulator or semiconductor, without    |
|      unoccupied bands, you have included TOO FEW BANDS!! Please increase    |
|      the parameter NBANDS in file INCAR to ensure that the highest band     |
|      is unoccupied at all k-points. It is always recommended to             |
|      include a few unoccupied bands to accelerate the convergence of        |
|      molecular dynamics runs (even for insulators or semiconductors).       |
|      Because the presence of unoccupied bands improves wavefunction         |
|      prediction, and helps to suppress 'band-crossings.'                    |
|                                                                             |
 ----------------------------------------------------------------------------- 

   1 F= -.24396087E+02 E0= -.24395636E+02  d E =-.243961E+02
 curvature:   0.00 expect dE= 0.000E+00 dE for cont linesearch  0.000E+00
 trial: gam= 0.00000 g(F)=  0.231E-12 g(S)=  0.967E-01 ort = 0.000E+00 (trialstep = 0.100E+01)
 search vector abs. value=  0.967E-01
 bond charge predicted
       N       E                     dE             d eps       ncg     rms          rms(c)
DAV:   1    -0.255715161410E+02   -0.11754E+01   -0.27317E+01 98912   0.420E+01    0.688E+00
RMM:   2    -0.243714856393E+02    0.12000E+01   -0.29780E+00 98496   0.122E+01    0.341E+00
RMM:   3    -0.243204380476E+02    0.51048E-01   -0.30100E-01 98497   0.333E+00    0.218E+00
RMM:   4    -0.243246339245E+02   -0.41959E-02   -0.12380E-02 99786   0.524E-01    0.440E-01
RMM:   5    -0.243251371133E+02   -0.50319E-03   -0.13175E-03100988   0.136E-01    0.419E-02
RMM:   6    -0.243251575389E+02   -0.20426E-04   -0.84064E-05 76775   0.379E-02    0.303E-02
RMM:   7    -0.243251881166E+02   -0.30578E-04   -0.24106E-05 56553   0.256E-02    0.106E-02
RMM:   8    -0.243251874321E+02    0.68447E-06   -0.63369E-06 51449   0.176E-02

 ----------------------------------------------------------------------------- 
|                                                                             |
|  ADVICE TO THIS USER RUNNING 'VASP/VAMP'   (HEAR YOUR MASTER'S VOICE ...):  |
|                                                                             |
|      Your highest band is occupied at some k-points! Unless you are         |
|      performing a calculation for an insulator or semiconductor, without    |
|      unoccupied bands, you have included TOO FEW BANDS!! Please increase    |
|      the parameter NBANDS in file INCAR to ensure that the highest band     |
|      is unoccupied at all k-points. It is always recommended to             |
|      include a few unoccupied bands to accelerate the convergence of        |
|      molecular dynamics runs (even for insulators or semiconductors).       |
|      Because the presence of unoccupied bands improves wavefunction         |
|      prediction, and helps to suppress 'band-crossings.'                    |
|                                                                             |
 ----------------------------------------------------------------------------- 

   2 F= -.24325187E+02 E0= -.24324552E+02  d E =0.708992E-01
 trial-energy change:    0.070899  1 .order    0.066207   -0.096710    0.229124
 step:   0.2794(harm=  0.2968)  dis= 0.00000  next Energy=   -24.409495 (dE=-0.134E-01)
 bond charge predicted
       N       E                     dE             d eps       ncg     rms          rms(c)
DAV:   1    -0.250474767148E+02   -0.72229E+00   -0.14157E+01 98496   0.302E+01    0.551E+00
RMM:   2    -0.244411530673E+02    0.60632E+00   -0.14701E+00 98496   0.841E+00    0.177E+00
RMM:   3    -0.244076530041E+02    0.33500E-01   -0.21218E-01 98496   0.286E+00    0.995E-01
RMM:   4    -0.244105015013E+02   -0.28485E-02   -0.12968E-02 98676   0.734E-01    0.265E-01
RMM:   5    -0.244101174251E+02    0.38408E-03   -0.23440E-03 99390   0.308E-01    0.265E-02
RMM:   6    -0.244101382249E+02   -0.20800E-04   -0.88291E-05 72695   0.339E-02    0.224E-02
RMM:   7    -0.244101476424E+02   -0.94176E-05   -0.93693E-06 51071   0.215E-02

 ----------------------------------------------------------------------------- 
|                                                                             |
|  ADVICE TO THIS USER RUNNING 'VASP/VAMP'   (HEAR YOUR MASTER'S VOICE ...):  |
|                                                                             |
|      Your highest band is occupied at some k-points! Unless you are         |
|      performing a calculation for an insulator or semiconductor, without    |
|      unoccupied bands, you have included TOO FEW BANDS!! Please increase    |
|      the parameter NBANDS in file INCAR to ensure that the highest band     |
|      is unoccupied at all k-points. It is always recommended to             |
|      include a few unoccupied bands to accelerate the convergence of        |
|      molecular dynamics runs (even for insulators or semiconductors).       |
|      Because the presence of unoccupied bands improves wavefunction         |
|      prediction, and helps to suppress 'band-crossings.'                    |
|                                                                             |
 ----------------------------------------------------------------------------- 

   3 F= -.24410148E+02 E0= -.24409633E+02  d E =-.140610E-01
 curvature:  -0.15 expect dE=-0.261E-04 dE for cont linesearch -0.261E-04
 trial: gam=-0.04086 g(F)=  0.141E-13 g(S)=  0.176E-03 ort = 0.413E-02 (trialstep = 0.856E+00)
 search vector abs. value=  0.321E-06
 reached required accuracy - stopping structural energy minimisation
