<?xml version="1.0" encoding="ISO-8859-1"?>
<modeling>
 <generator>
  <i name="program" type="string">vasp </i>
  <i name="version" type="string">5.4.4.18Apr17-6-g9f103f2a35  </i>
  <i name="subversion" type="string">(build May 23 2022 10:35:18) complex            parallel </i>
  <i name="platform" type="string">IFC18_impi </i>
  <i name="date" type="string">2023 06 19 </i>
  <i name="time" type="string">16:46:52 </i>
 </generator>
 <incar>
  <i type="string" name="SYSTEM"> Pt</i>
  <i type="int" name="ISTART">     0</i>
  <i type="string" name="PREC">med   normal | accurate</i>
  <i type="string" name="ALGO">  Fast    Normal, Fast, Very_Fast</i>
  <i type="int" name="ICHARG">     2</i>
  <i type="int" name="INIWAV">     1</i>
  <i type="int" name="NELM">   100</i>
  <i type="int" name="IBRION">     2</i>
  <i name="EDIFF">      0.00001000</i>
  <i type="int" name="NSW">   200</i>
  <i type="int" name="ISIF">     3</i>
  <i type="int" name="ISYM">     0</i>
  <i name="ENCUT">    400.00000000</i>
  <i type="string" name="LREAL">  Auto     real-space projection (.FALSE</i>
  <i type="int" name="ISMEAR">     1</i>
  <i name="SIGMA">      0.10000000</i>
  <i type="int" name="NWRITE">     2</i>
  <i type="logical" name="LWAVE"> F  </i>
  <i type="logical" name="LCHARG"> F  </i>
  <i type="logical" name="LAECHG"> F  </i>
  <v type="int" name="KPOINT_BSE">    -1     0     0     0</v>
  <i type="int" name="NELM">   100</i>
 </incar>
 <structure name="primitive_cell" >
  <crystal>
   <varray name="basis" >
    <v>       3.94315036       0.00000000       0.00000000 </v>
    <v>       0.00000000       3.94315036       0.00000000 </v>
    <v>       0.00000000       0.00000000       3.94315036 </v>
   </varray>
   <i name="volume">     61.30981613 </i>
   <varray name="rec_basis" >
    <v>       0.25360433       0.00000000       0.00000000 </v>
    <v>       0.00000000       0.25360433       0.00000000 </v>
    <v>       0.00000000       0.00000000       0.25360433 </v>
   </varray>
  </crystal>
  <varray name="positions" >
   <v>       0.00000000       0.00000000       0.00000000 </v>
   <v>       0.00000000      -0.50000000      -0.50000000 </v>
   <v>      -0.50000000       0.00000000      -0.50000000 </v>
   <v>      -0.50000000      -0.50000000       0.00000000 </v>
  </varray>
 </structure>
 <varray name="primitive_index" >
  <v type="int" >        1 </v>
  <v type="int" >        2 </v>
  <v type="int" >        3 </v>
  <v type="int" >        4 </v>
 </varray>
 <kpoints>
  <generation param="Gamma">
   <v type="int" name="divisions">      16       16       16 </v>
   <v name="usershift">      0.00000000       0.00000000       0.00000000 </v>
   <v name="genvec1">      0.06250000       0.00000000       0.00000000 </v>
   <v name="genvec2">      0.00000000       0.06250000       0.00000000 </v>
   <v name="genvec3">      0.00000000       0.00000000       0.06250000 </v>
   <v name="shift">      0.00000000       0.00000000       0.00000000 </v>
  </generation>
  <varray name="kpointlist" >
   <v>       0.00000000       0.00000000       0.00000000 </v>
   <v>       0.06250000       0.00000000       0.00000000 </v>
   <v>       0.12500000       0.00000000       0.00000000 </v>
   <v>       0.18750000       0.00000000       0.00000000 </v>
   <v>       0.25000000       0.00000000       0.00000000 </v>
   <v>       0.31250000       0.00000000       0.00000000 </v>
   <v>       0.37500000       0.00000000       0.00000000 </v>
   <v>       0.43750000       0.00000000       0.00000000 </v>
   <v>       0.50000000       0.00000000       0.00000000 </v>
   <v>       0.00000000       0.06250000       0.00000000 </v>
   <v>       0.06250000       0.06250000       0.00000000 </v>
   <v>       0.12500000       0.06250000       0.00000000 </v>
   <v>       0.18750000       0.06250000       0.00000000 </v>
   <v>       0.25000000       0.06250000       0.00000000 </v>
   <v>       0.31250000       0.06250000       0.00000000 </v>
   <v>       0.37500000       0.06250000       0.00000000 </v>
   <v>       0.43750000       0.06250000       0.00000000 </v>
   <v>       0.50000000       0.06250000       0.00000000 </v>
   <v>      -0.43750000       0.06250000       0.00000000 </v>
   <v>      -0.37500000       0.06250000       0.00000000 </v>
   <v>      -0.31250000       0.06250000       0.00000000 </v>
   <v>      -0.25000000       0.06250000       0.00000000 </v>
   <v>      -0.18750000       0.06250000       0.00000000 </v>
   <v>      -0.12500000       0.06250000       0.00000000 </v>
   <v>      -0.06250000       0.06250000       0.00000000 </v>
   <v>       0.00000000       0.12500000       0.00000000 </v>
   <v>       0.06250000       0.12500000       0.00000000 </v>
   <v>       0.12500000       0.12500000       0.00000000 </v>
   <v>       0.18750000       0.12500000       0.00000000 </v>
   <v>       0.25000000       0.12500000       0.00000000 </v>
   <v>       0.31250000       0.12500000       0.00000000 </v>
   <v>       0.37500000       0.12500000       0.00000000 </v>
   <v>       0.43750000       0.12500000       0.00000000 </v>
   <v>       0.50000000       0.12500000       0.00000000 </v>
   <v>      -0.43750000       0.12500000       0.00000000 </v>
   <v>      -0.37500000       0.12500000       0.00000000 </v>
   <v>      -0.31250000       0.12500000       0.00000000 </v>
   <v>      -0.25000000       0.12500000       0.00000000 </v>
   <v>      -0.18750000       0.12500000       0.00000000 </v>
   <v>      -0.12500000       0.12500000       0.00000000 </v>
   <v>      -0.06250000       0.12500000       0.00000000 </v>
   <v>       0.00000000       0.18750000       0.00000000 </v>
   <v>       0.06250000       0.18750000       0.00000000 </v>
   <v>       0.12500000       0.18750000       0.00000000 </v>
   <v>       0.18750000       0.18750000       0.00000000 </v>
   <v>       0.25000000       0.18750000       0.00000000 </v>
   <v>       0.31250000       0.18750000       0.00000000 </v>
   <v>       0.37500000       0.18750000       0.00000000 </v>
   <v>       0.43750000       0.18750000       0.00000000 </v>
   <v>       0.50000000       0.18750000       0.00000000 </v>
   <v>      -0.43750000       0.18750000       0.00000000 </v>
   <v>      -0.37500000       0.18750000       0.00000000 </v>
   <v>      -0.31250000       0.18750000       0.00000000 </v>
   <v>      -0.25000000       0.18750000       0.00000000 </v>
   <v>      -0.18750000       0.18750000       0.00000000 </v>
   <v>      -0.12500000       0.18750000       0.00000000 </v>
   <v>      -0.06250000       0.18750000       0.00000000 </v>
   <v>       0.00000000       0.25000000       0.00000000 </v>
   <v>       0.06250000       0.25000000       0.00000000 </v>
   <v>       0.12500000       0.25000000       0.00000000 </v>
   <v>       0.18750000       0.25000000       0.00000000 </v>
   <v>       0.25000000       0.25000000       0.00000000 </v>
   <v>       0.31250000       0.25000000       0.00000000 </v>
   <v>       0.37500000       0.25000000       0.00000000 </v>
   <v>       0.43750000       0.25000000       0.00000000 </v>
   <v>       0.50000000       0.25000000       0.00000000 </v>
   <v>      -0.43750000       0.25000000       0.00000000 </v>
   <v>      -0.37500000       0.25000000       0.00000000 </v>
   <v>      -0.31250000       0.25000000       0.00000000 </v>
   <v>      -0.25000000       0.25000000       0.00000000 </v>
   <v>      -0.18750000       0.25000000       0.00000000 </v>
   <v>      -0.12500000       0.25000000       0.00000000 </v>
   <v>      -0.06250000       0.25000000       0.00000000 </v>
   <v>       0.00000000       0.31250000       0.00000000 </v>
   <v>       0.06250000       0.31250000       0.00000000 </v>
   <v>       0.12500000       0.31250000       0.00000000 </v>
   <v>       0.18750000       0.31250000       0.00000000 </v>
   <v>       0.25000000       0.31250000       0.00000000 </v>
   <v>       0.31250000       0.31250000       0.00000000 </v>
   <v>       0.37500000       0.31250000       0.00000000 </v>
   <v>       0.43750000       0.31250000       0.00000000 </v>
   <v>       0.50000000       0.31250000       0.00000000 </v>
   <v>      -0.43750000       0.31250000       0.00000000 </v>
   <v>      -0.37500000       0.31250000       0.00000000 </v>
   <v>      -0.31250000       0.31250000       0.00000000 </v>
   <v>      -0.25000000       0.31250000       0.00000000 </v>
   <v>      -0.18750000       0.31250000       0.00000000 </v>
   <v>      -0.12500000       0.31250000       0.00000000 </v>
   <v>      -0.06250000       0.31250000       0.00000000 </v>
   <v>       0.00000000       0.37500000       0.00000000 </v>
   <v>       0.06250000       0.37500000       0.00000000 </v>
   <v>       0.12500000       0.37500000       0.00000000 </v>
   <v>       0.18750000       0.37500000       0.00000000 </v>
   <v>       0.25000000       0.37500000       0.00000000 </v>
   <v>       0.31250000       0.37500000       0.00000000 </v>
   <v>       0.37500000       0.37500000       0.00000000 </v>
   <v>       0.43750000       0.37500000       0.00000000 </v>
   <v>       0.50000000       0.37500000       0.00000000 </v>
   <v>      -0.43750000       0.37500000       0.00000000 </v>
   <v>      -0.37500000       0.37500000       0.00000000 </v>
   <v>      -0.31250000       0.37500000       0.00000000 </v>
   <v>      -0.25000000       0.37500000       0.00000000 </v>
   <v>      -0.18750000       0.37500000       0.00000000 </v>
   <v>      -0.12500000       0.37500000       0.00000000 </v>
   <v>      -0.06250000       0.37500000       0.00000000 </v>
   <v>       0.00000000       0.43750000       0.00000000 </v>
   <v>       0.06250000       0.43750000       0.00000000 </v>
   <v>       0.12500000       0.43750000       0.00000000 </v>
   <v>       0.18750000       0.43750000       0.00000000 </v>
   <v>       0.25000000       0.43750000       0.00000000 </v>
   <v>       0.31250000       0.43750000       0.00000000 </v>
   <v>       0.37500000       0.43750000       0.00000000 </v>
   <v>       0.43750000       0.43750000       0.00000000 </v>
   <v>       0.50000000       0.43750000       0.00000000 </v>
   <v>      -0.43750000       0.43750000       0.00000000 </v>
   <v>      -0.37500000       0.43750000       0.00000000 </v>
   <v>      -0.31250000       0.43750000       0.00000000 </v>
   <v>      -0.25000000       0.43750000       0.00000000 </v>
   <v>      -0.18750000       0.43750000       0.00000000 </v>
   <v>      -0.12500000       0.43750000       0.00000000 </v>
   <v>      -0.06250000       0.43750000       0.00000000 </v>
   <v>       0.00000000       0.50000000       0.00000000 </v>
   <v>       0.06250000       0.50000000       0.00000000 </v>
   <v>       0.12500000       0.50000000       0.00000000 </v>
   <v>       0.18750000       0.50000000       0.00000000 </v>
   <v>       0.25000000       0.50000000       0.00000000 </v>
   <v>       0.31250000       0.50000000       0.00000000 </v>
   <v>       0.37500000       0.50000000       0.00000000 </v>
   <v>       0.43750000       0.50000000       0.00000000 </v>
   <v>       0.50000000       0.50000000       0.00000000 </v>
   <v>       0.00000000       0.00000000       0.06250000 </v>
   <v>       0.06250000       0.00000000       0.06250000 </v>
   <v>       0.12500000       0.00000000       0.06250000 </v>
   <v>       0.18750000       0.00000000       0.06250000 </v>
   <v>       0.25000000       0.00000000       0.06250000 </v>
   <v>       0.31250000       0.00000000       0.06250000 </v>
   <v>       0.37500000       0.00000000       0.06250000 </v>
   <v>       0.43750000       0.00000000       0.06250000 </v>
   <v>       0.50000000       0.00000000       0.06250000 </v>
   <v>      -0.43750000       0.00000000       0.06250000 </v>
   <v>      -0.37500000       0.00000000       0.06250000 </v>
   <v>      -0.31250000       0.00000000       0.06250000 </v>
   <v>      -0.25000000       0.00000000       0.06250000 </v>
   <v>      -0.18750000       0.00000000       0.06250000 </v>
   <v>      -0.12500000       0.00000000       0.06250000 </v>
   <v>      -0.06250000       0.00000000       0.06250000 </v>
   <v>       0.00000000       0.06250000       0.06250000 </v>
   <v>       0.06250000       0.06250000       0.06250000 </v>
   <v>       0.12500000       0.06250000       0.06250000 </v>
   <v>       0.18750000       0.06250000       0.06250000 </v>
   <v>       0.25000000       0.06250000       0.06250000 </v>
   <v>       0.31250000       0.06250000       0.06250000 </v>
   <v>       0.37500000       0.06250000       0.06250000 </v>
   <v>       0.43750000       0.06250000       0.06250000 </v>
   <v>       0.50000000       0.06250000       0.06250000 </v>
   <v>      -0.43750000       0.06250000       0.06250000 </v>
   <v>      -0.37500000       0.06250000       0.06250000 </v>
   <v>      -0.31250000       0.06250000       0.06250000 </v>
   <v>      -0.25000000       0.06250000       0.06250000 </v>
   <v>      -0.18750000       0.06250000       0.06250000 </v>
   <v>      -0.12500000       0.06250000       0.06250000 </v>
   <v>      -0.06250000       0.06250000       0.06250000 </v>
   <v>       0.00000000       0.12500000       0.06250000 </v>
   <v>       0.06250000       0.12500000       0.06250000 </v>
   <v>       0.12500000       0.12500000       0.06250000 </v>
   <v>       0.18750000       0.12500000       0.06250000 </v>
   <v>       0.25000000       0.12500000       0.06250000 </v>
   <v>       0.31250000       0.12500000       0.06250000 </v>
   <v>       0.37500000       0.12500000       0.06250000 </v>
   <v>       0.43750000       0.12500000       0.06250000 </v>
   <v>       0.50000000       0.12500000       0.06250000 </v>
   <v>      -0.43750000       0.12500000       0.06250000 </v>
   <v>      -0.37500000       0.12500000       0.06250000 </v>
   <v>      -0.31250000       0.12500000       0.06250000 </v>
   <v>      -0.25000000       0.12500000       0.06250000 </v>
   <v>      -0.18750000       0.12500000       0.06250000 </v>
   <v>      -0.12500000       0.12500000       0.06250000 </v>
   <v>      -0.06250000       0.12500000       0.06250000 </v>
   <v>       0.00000000       0.18750000       0.06250000 </v>
   <v>       0.06250000       0.18750000       0.06250000 </v>
   <v>       0.12500000       0.18750000       0.06250000 </v>
   <v>       0.18750000       0.18750000       0.06250000 </v>
   <v>       0.25000000       0.18750000       0.06250000 </v>
   <v>       0.31250000       0.18750000       0.06250000 </v>
   <v>       0.37500000       0.18750000       0.06250000 </v>
   <v>       0.43750000       0.18750000       0.06250000 </v>
   <v>       0.50000000       0.18750000       0.06250000 </v>
   <v>      -0.43750000       0.18750000       0.06250000 </v>
   <v>      -0.37500000       0.18750000       0.06250000 </v>
   <v>      -0.31250000       0.18750000       0.06250000 </v>
   <v>      -0.25000000       0.18750000       0.06250000 </v>
   <v>      -0.18750000       0.18750000       0.06250000 </v>
   <v>      -0.12500000       0.18750000       0.06250000 </v>
   <v>      -0.06250000       0.18750000       0.06250000 </v>
   <v>       0.00000000       0.25000000       0.06250000 </v>
   <v>       0.06250000       0.25000000       0.06250000 </v>
   <v>       0.12500000       0.25000000       0.06250000 </v>
   <v>       0.18750000       0.25000000       0.06250000 </v>
   <v>       0.25000000       0.25000000       0.06250000 </v>
   <v>       0.31250000       0.25000000       0.06250000 </v>
   <v>       0.37500000       0.25000000       0.06250000 </v>
   <v>       0.43750000       0.25000000       0.06250000 </v>
   <v>       0.50000000       0.25000000       0.06250000 </v>
   <v>      -0.43750000       0.25000000       0.06250000 </v>
   <v>      -0.37500000       0.25000000       0.06250000 </v>
   <v>      -0.31250000       0.25000000       0.06250000 </v>
   <v>      -0.25000000       0.25000000       0.06250000 </v>
   <v>      -0.18750000       0.25000000       0.06250000 </v>
   <v>      -0.12500000       0.25000000       0.06250000 </v>
   <v>      -0.06250000       0.25000000       0.06250000 </v>
   <v>       0.00000000       0.31250000       0.06250000 </v>
   <v>       0.06250000       0.31250000       0.06250000 </v>
   <v>       0.12500000       0.31250000       0.06250000 </v>
   <v>       0.18750000       0.31250000       0.06250000 </v>
   <v>       0.25000000       0.31250000       0.06250000 </v>
   <v>       0.31250000       0.31250000       0.06250000 </v>
   <v>       0.37500000       0.31250000       0.06250000 </v>
   <v>       0.43750000       0.31250000       0.06250000 </v>
   <v>       0.50000000       0.31250000       0.06250000 </v>
   <v>      -0.43750000       0.31250000       0.06250000 </v>
   <v>      -0.37500000       0.31250000       0.06250000 </v>
   <v>      -0.31250000       0.31250000       0.06250000 </v>
   <v>      -0.25000000       0.31250000       0.06250000 </v>
   <v>      -0.18750000       0.31250000       0.06250000 </v>
   <v>      -0.12500000       0.31250000       0.06250000 </v>
   <v>      -0.06250000       0.31250000       0.06250000 </v>
   <v>       0.00000000       0.37500000       0.06250000 </v>
   <v>       0.06250000       0.37500000       0.06250000 </v>
   <v>       0.12500000       0.37500000       0.06250000 </v>
   <v>       0.18750000       0.37500000       0.06250000 </v>
   <v>       0.25000000       0.37500000       0.06250000 </v>
   <v>       0.31250000       0.37500000       0.06250000 </v>
   <v>       0.37500000       0.37500000       0.06250000 </v>
   <v>       0.43750000       0.37500000       0.06250000 </v>
   <v>       0.50000000       0.37500000       0.06250000 </v>
   <v>      -0.43750000       0.37500000       0.06250000 </v>
   <v>      -0.37500000       0.37500000       0.06250000 </v>
   <v>      -0.31250000       0.37500000       0.06250000 </v>
   <v>      -0.25000000       0.37500000       0.06250000 </v>
   <v>      -0.18750000       0.37500000       0.06250000 </v>
   <v>      -0.12500000       0.37500000       0.06250000 </v>
   <v>      -0.06250000       0.37500000       0.06250000 </v>
   <v>       0.00000000       0.43750000       0.06250000 </v>
   <v>       0.06250000       0.43750000       0.06250000 </v>
   <v>       0.12500000       0.43750000       0.06250000 </v>
   <v>       0.18750000       0.43750000       0.06250000 </v>
   <v>       0.25000000       0.43750000       0.06250000 </v>
   <v>       0.31250000       0.43750000       0.06250000 </v>
   <v>       0.37500000       0.43750000       0.06250000 </v>
   <v>       0.43750000       0.43750000       0.06250000 </v>
   <v>       0.50000000       0.43750000       0.06250000 </v>
   <v>      -0.43750000       0.43750000       0.06250000 </v>
   <v>      -0.37500000       0.43750000       0.06250000 </v>
   <v>      -0.31250000       0.43750000       0.06250000 </v>
   <v>      -0.25000000       0.43750000       0.06250000 </v>
   <v>      -0.18750000       0.43750000       0.06250000 </v>
   <v>      -0.12500000       0.43750000       0.06250000 </v>
   <v>      -0.06250000       0.43750000       0.06250000 </v>
   <v>       0.00000000       0.50000000       0.06250000 </v>
   <v>       0.06250000       0.50000000       0.06250000 </v>
   <v>       0.12500000       0.50000000       0.06250000 </v>
   <v>       0.18750000       0.50000000       0.06250000 </v>
   <v>       0.25000000       0.50000000       0.06250000 </v>
   <v>       0.31250000       0.50000000       0.06250000 </v>
   <v>       0.37500000       0.50000000       0.06250000 </v>
   <v>       0.43750000       0.50000000       0.06250000 </v>
   <v>       0.50000000       0.50000000       0.06250000 </v>
   <v>      -0.43750000       0.50000000       0.06250000 </v>
   <v>      -0.37500000       0.50000000       0.06250000 </v>
   <v>      -0.31250000       0.50000000       0.06250000 </v>
   <v>      -0.25000000       0.50000000       0.06250000 </v>
   <v>      -0.18750000       0.50000000       0.06250000 </v>
   <v>      -0.12500000       0.50000000       0.06250000 </v>
   <v>      -0.06250000       0.50000000       0.06250000 </v>
   <v>       0.00000000      -0.43750000       0.06250000 </v>
   <v>       0.06250000      -0.43750000       0.06250000 </v>
   <v>       0.12500000      -0.43750000       0.06250000 </v>
   <v>       0.18750000      -0.43750000       0.06250000 </v>
   <v>       0.25000000      -0.43750000       0.06250000 </v>
   <v>       0.31250000      -0.43750000       0.06250000 </v>
   <v>       0.37500000      -0.43750000       0.06250000 </v>
   <v>       0.43750000      -0.43750000       0.06250000 </v>
   <v>       0.50000000      -0.43750000       0.06250000 </v>
   <v>      -0.43750000      -0.43750000       0.06250000 </v>
   <v>      -0.37500000      -0.43750000       0.06250000 </v>
   <v>      -0.31250000      -0.43750000       0.06250000 </v>
   <v>      -0.25000000      -0.43750000       0.06250000 </v>
   <v>      -0.18750000      -0.43750000       0.06250000 </v>
   <v>      -0.12500000      -0.43750000       0.06250000 </v>
   <v>      -0.06250000      -0.43750000       0.06250000 </v>
   <v>       0.00000000      -0.37500000       0.06250000 </v>
   <v>       0.06250000      -0.37500000       0.06250000 </v>
   <v>       0.12500000      -0.37500000       0.06250000 </v>
   <v>       0.18750000      -0.37500000       0.06250000 </v>
   <v>       0.25000000      -0.37500000       0.06250000 </v>
   <v>       0.31250000      -0.37500000       0.06250000 </v>
   <v>       0.37500000      -0.37500000       0.06250000 </v>
   <v>       0.43750000      -0.37500000       0.06250000 </v>
   <v>       0.50000000      -0.37500000       0.06250000 </v>
   <v>      -0.43750000      -0.37500000       0.06250000 </v>
   <v>      -0.37500000      -0.37500000       0.06250000 </v>
   <v>      -0.31250000      -0.37500000       0.06250000 </v>
   <v>      -0.25000000      -0.37500000       0.06250000 </v>
   <v>      -0.18750000      -0.37500000       0.06250000 </v>
   <v>      -0.12500000      -0.37500000       0.06250000 </v>
   <v>      -0.06250000      -0.37500000       0.06250000 </v>
   <v>       0.00000000      -0.31250000       0.06250000 </v>
   <v>       0.06250000      -0.31250000       0.06250000 </v>
   <v>       0.12500000      -0.31250000       0.06250000 </v>
   <v>       0.18750000      -0.31250000       0.06250000 </v>
   <v>       0.25000000      -0.31250000       0.06250000 </v>
   <v>       0.31250000      -0.31250000       0.06250000 </v>
   <v>       0.37500000      -0.31250000       0.06250000 </v>
   <v>       0.43750000      -0.31250000       0.06250000 </v>
   <v>       0.50000000      -0.31250000       0.06250000 </v>
   <v>      -0.43750000      -0.31250000       0.06250000 </v>
   <v>      -0.37500000      -0.31250000       0.06250000 </v>
   <v>      -0.31250000      -0.31250000       0.06250000 </v>
   <v>      -0.25000000      -0.31250000       0.06250000 </v>
   <v>      -0.18750000      -0.31250000       0.06250000 </v>
   <v>      -0.12500000      -0.31250000       0.06250000 </v>
   <v>      -0.06250000      -0.31250000       0.06250000 </v>
   <v>       0.00000000      -0.25000000       0.06250000 </v>
   <v>       0.06250000      -0.25000000       0.06250000 </v>
   <v>       0.12500000      -0.25000000       0.06250000 </v>
   <v>       0.18750000      -0.25000000       0.06250000 </v>
   <v>       0.25000000      -0.25000000       0.06250000 </v>
   <v>       0.31250000      -0.25000000       0.06250000 </v>
   <v>       0.37500000      -0.25000000       0.06250000 </v>
   <v>       0.43750000      -0.25000000       0.06250000 </v>
   <v>       0.50000000      -0.25000000       0.06250000 </v>
   <v>      -0.43750000      -0.25000000       0.06250000 </v>
   <v>      -0.37500000      -0.25000000       0.06250000 </v>
   <v>      -0.31250000      -0.25000000       0.06250000 </v>
   <v>      -0.25000000      -0.25000000       0.06250000 </v>
   <v>      -0.18750000      -0.25000000       0.06250000 </v>
   <v>      -0.12500000      -0.25000000       0.06250000 </v>
   <v>      -0.06250000      -0.25000000       0.06250000 </v>
   <v>       0.00000000      -0.18750000       0.06250000 </v>
   <v>       0.06250000      -0.18750000       0.06250000 </v>
   <v>       0.12500000      -0.18750000       0.06250000 </v>
   <v>       0.18750000      -0.18750000       0.06250000 </v>
   <v>       0.25000000      -0.18750000       0.06250000 </v>
   <v>       0.31250000      -0.18750000       0.06250000 </v>
   <v>       0.37500000      -0.18750000       0.06250000 </v>
   <v>       0.43750000      -0.18750000       0.06250000 </v>
   <v>       0.50000000      -0.18750000       0.06250000 </v>
   <v>      -0.43750000      -0.18750000       0.06250000 </v>
   <v>      -0.37500000      -0.18750000       0.06250000 </v>
   <v>      -0.31250000      -0.18750000       0.06250000 </v>
   <v>      -0.25000000      -0.18750000       0.06250000 </v>
   <v>      -0.18750000      -0.18750000       0.06250000 </v>
   <v>      -0.12500000      -0.18750000       0.06250000 </v>
   <v>      -0.06250000      -0.18750000       0.06250000 </v>
   <v>       0.00000000      -0.12500000       0.06250000 </v>
   <v>       0.06250000      -0.12500000       0.06250000 </v>
   <v>       0.12500000      -0.12500000       0.06250000 </v>
   <v>       0.18750000      -0.12500000       0.06250000 </v>
   <v>       0.25000000      -0.12500000       0.06250000 </v>
   <v>       0.31250000      -0.12500000       0.06250000 </v>
   <v>       0.37500000      -0.12500000       0.06250000 </v>
   <v>       0.43750000      -0.12500000       0.06250000 </v>
   <v>       0.50000000      -0.12500000       0.06250000 </v>
   <v>      -0.43750000      -0.12500000       0.06250000 </v>
   <v>      -0.37500000      -0.12500000       0.06250000 </v>
   <v>      -0.31250000      -0.12500000       0.06250000 </v>
   <v>      -0.25000000      -0.12500000       0.06250000 </v>
   <v>      -0.18750000      -0.12500000       0.06250000 </v>
   <v>      -0.12500000      -0.12500000       0.06250000 </v>
   <v>      -0.06250000      -0.12500000       0.06250000 </v>
   <v>       0.00000000      -0.06250000       0.06250000 </v>
   <v>       0.06250000      -0.06250000       0.06250000 </v>
   <v>       0.12500000      -0.06250000       0.06250000 </v>
   <v>       0.18750000      -0.06250000       0.06250000 </v>
   <v>       0.25000000      -0.06250000       0.06250000 </v>
   <v>       0.31250000      -0.06250000       0.06250000 </v>
   <v>       0.37500000      -0.06250000       0.06250000 </v>
   <v>       0.43750000      -0.06250000       0.06250000 </v>
   <v>       0.50000000      -0.06250000       0.06250000 </v>
   <v>      -0.43750000      -0.06250000       0.06250000 </v>
   <v>      -0.37500000      -0.06250000       0.06250000 </v>
   <v>      -0.31250000      -0.06250000       0.06250000 </v>
   <v>      -0.25000000      -0.06250000       0.06250000 </v>
   <v>      -0.18750000      -0.06250000       0.06250000 </v>
   <v>      -0.12500000      -0.06250000       0.06250000 </v>
   <v>      -0.06250000      -0.06250000       0.06250000 </v>
   <v>       0.00000000       0.00000000       0.12500000 </v>
   <v>       0.06250000       0.00000000       0.12500000 </v>
   <v>       0.12500000       0.00000000       0.12500000 </v>
   <v>       0.18750000       0.00000000       0.12500000 </v>
   <v>       0.25000000       0.00000000       0.12500000 </v>
   <v>       0.31250000       0.00000000       0.12500000 </v>
   <v>       0.37500000       0.00000000       0.12500000 </v>
   <v>       0.43750000       0.00000000       0.12500000 </v>
   <v>       0.50000000       0.00000000       0.12500000 </v>
   <v>      -0.43750000       0.00000000       0.12500000 </v>
   <v>      -0.37500000       0.00000000       0.12500000 </v>
   <v>      -0.31250000       0.00000000       0.12500000 </v>
   <v>      -0.25000000       0.00000000       0.12500000 </v>
   <v>      -0.18750000       0.00000000       0.12500000 </v>
   <v>      -0.12500000       0.00000000       0.12500000 </v>
   <v>      -0.06250000       0.00000000       0.12500000 </v>
   <v>       0.00000000       0.06250000       0.12500000 </v>
   <v>       0.06250000       0.06250000       0.12500000 </v>
   <v>       0.12500000       0.06250000       0.12500000 </v>
   <v>       0.18750000       0.06250000       0.12500000 </v>
   <v>       0.25000000       0.06250000       0.12500000 </v>
   <v>       0.31250000       0.06250000       0.12500000 </v>
   <v>       0.37500000       0.06250000       0.12500000 </v>
   <v>       0.43750000       0.06250000       0.12500000 </v>
   <v>       0.50000000       0.06250000       0.12500000 </v>
   <v>      -0.43750000       0.06250000       0.12500000 </v>
   <v>      -0.37500000       0.06250000       0.12500000 </v>
   <v>      -0.31250000       0.06250000       0.12500000 </v>
   <v>      -0.25000000       0.06250000       0.12500000 </v>
   <v>      -0.18750000       0.06250000       0.12500000 </v>
   <v>      -0.12500000       0.06250000       0.12500000 </v>
   <v>      -0.06250000       0.06250000       0.12500000 </v>
   <v>       0.00000000       0.12500000       0.12500000 </v>
   <v>       0.06250000       0.12500000       0.12500000 </v>
   <v>       0.12500000       0.12500000       0.12500000 </v>
   <v>       0.18750000       0.12500000       0.12500000 </v>
   <v>       0.25000000       0.12500000       0.12500000 </v>
   <v>       0.31250000       0.12500000       0.12500000 </v>
   <v>       0.37500000       0.12500000       0.12500000 </v>
   <v>       0.43750000       0.12500000       0.12500000 </v>
   <v>       0.50000000       0.12500000       0.12500000 </v>
   <v>      -0.43750000       0.12500000       0.12500000 </v>
   <v>      -0.37500000       0.12500000       0.12500000 </v>
   <v>      -0.31250000       0.12500000       0.12500000 </v>
   <v>      -0.25000000       0.12500000       0.12500000 </v>
   <v>      -0.18750000       0.12500000       0.12500000 </v>
   <v>      -0.12500000       0.12500000       0.12500000 </v>
   <v>      -0.06250000       0.12500000       0.12500000 </v>
   <v>       0.00000000       0.18750000       0.12500000 </v>
   <v>       0.06250000       0.18750000       0.12500000 </v>
   <v>       0.12500000       0.18750000       0.12500000 </v>
   <v>       0.18750000       0.18750000       0.12500000 </v>
   <v>       0.25000000       0.18750000       0.12500000 </v>
   <v>       0.31250000       0.18750000       0.12500000 </v>
   <v>       0.37500000       0.18750000       0.12500000 </v>
   <v>       0.43750000       0.18750000       0.12500000 </v>
   <v>       0.50000000       0.18750000       0.12500000 </v>
   <v>      -0.43750000       0.18750000       0.12500000 </v>
   <v>      -0.37500000       0.18750000       0.12500000 </v>
   <v>      -0.31250000       0.18750000       0.12500000 </v>
   <v>      -0.25000000       0.18750000       0.12500000 </v>
   <v>      -0.18750000       0.18750000       0.12500000 </v>
   <v>      -0.12500000       0.18750000       0.12500000 </v>
   <v>      -0.06250000       0.18750000       0.12500000 </v>
   <v>       0.00000000       0.25000000       0.12500000 </v>
   <v>       0.06250000       0.25000000       0.12500000 </v>
   <v>       0.12500000       0.25000000       0.12500000 </v>
   <v>       0.18750000       0.25000000       0.12500000 </v>
   <v>       0.25000000       0.25000000       0.12500000 </v>
   <v>       0.31250000       0.25000000       0.12500000 </v>
   <v>       0.37500000       0.25000000       0.12500000 </v>
   <v>       0.43750000       0.25000000       0.12500000 </v>
   <v>       0.50000000       0.25000000       0.12500000 </v>
   <v>      -0.43750000       0.25000000       0.12500000 </v>
   <v>      -0.37500000       0.25000000       0.12500000 </v>
   <v>      -0.31250000       0.25000000       0.12500000 </v>
   <v>      -0.25000000       0.25000000       0.12500000 </v>
   <v>      -0.18750000       0.25000000       0.12500000 </v>
   <v>      -0.12500000       0.25000000       0.12500000 </v>
   <v>      -0.06250000       0.25000000       0.12500000 </v>
   <v>       0.00000000       0.31250000       0.12500000 </v>
   <v>       0.06250000       0.31250000       0.12500000 </v>
   <v>       0.12500000       0.31250000       0.12500000 </v>
   <v>       0.18750000       0.31250000       0.12500000 </v>
   <v>       0.25000000       0.31250000       0.12500000 </v>
   <v>       0.31250000       0.31250000       0.12500000 </v>
   <v>       0.37500000       0.31250000       0.12500000 </v>
   <v>       0.43750000       0.31250000       0.12500000 </v>
   <v>       0.50000000       0.31250000       0.12500000 </v>
   <v>      -0.43750000       0.31250000       0.12500000 </v>
   <v>      -0.37500000       0.31250000       0.12500000 </v>
   <v>      -0.31250000       0.31250000       0.12500000 </v>
   <v>      -0.25000000       0.31250000       0.12500000 </v>
   <v>      -0.18750000       0.31250000       0.12500000 </v>
   <v>      -0.12500000       0.31250000       0.12500000 </v>
   <v>      -0.06250000       0.31250000       0.12500000 </v>
   <v>       0.00000000       0.37500000       0.12500000 </v>
   <v>       0.06250000       0.37500000       0.12500000 </v>
   <v>       0.12500000       0.37500000       0.12500000 </v>
   <v>       0.18750000       0.37500000       0.12500000 </v>
   <v>       0.25000000       0.37500000       0.12500000 </v>
   <v>       0.31250000       0.37500000       0.12500000 </v>
   <v>       0.37500000       0.37500000       0.12500000 </v>
   <v>       0.43750000       0.37500000       0.12500000 </v>
   <v>       0.50000000       0.37500000       0.12500000 </v>
   <v>      -0.43750000       0.37500000       0.12500000 </v>
   <v>      -0.37500000       0.37500000       0.12500000 </v>
   <v>      -0.31250000       0.37500000       0.12500000 </v>
   <v>      -0.25000000       0.37500000       0.12500000 </v>
   <v>      -0.18750000       0.37500000       0.12500000 </v>
   <v>      -0.12500000       0.37500000       0.12500000 </v>
   <v>      -0.06250000       0.37500000       0.12500000 </v>
   <v>       0.00000000       0.43750000       0.12500000 </v>
   <v>       0.06250000       0.43750000       0.12500000 </v>
   <v>       0.12500000       0.43750000       0.12500000 </v>
   <v>       0.18750000       0.43750000       0.12500000 </v>
   <v>       0.25000000       0.43750000       0.12500000 </v>
   <v>       0.31250000       0.43750000       0.12500000 </v>
   <v>       0.37500000       0.43750000       0.12500000 </v>
   <v>       0.43750000       0.43750000       0.12500000 </v>
   <v>       0.50000000       0.43750000       0.12500000 </v>
   <v>      -0.43750000       0.43750000       0.12500000 </v>
   <v>      -0.37500000       0.43750000       0.12500000 </v>
   <v>      -0.31250000       0.43750000       0.12500000 </v>
   <v>      -0.25000000       0.43750000       0.12500000 </v>
   <v>      -0.18750000       0.43750000       0.12500000 </v>
   <v>      -0.12500000       0.43750000       0.12500000 </v>
   <v>      -0.06250000       0.43750000       0.12500000 </v>
   <v>       0.00000000       0.50000000       0.12500000 </v>
   <v>       0.06250000       0.50000000       0.12500000 </v>
   <v>       0.12500000       0.50000000       0.12500000 </v>
   <v>       0.18750000       0.50000000       0.12500000 </v>
   <v>       0.25000000       0.50000000       0.12500000 </v>
   <v>       0.31250000       0.50000000       0.12500000 </v>
   <v>       0.37500000       0.50000000       0.12500000 </v>
   <v>       0.43750000       0.50000000       0.12500000 </v>
   <v>       0.50000000       0.50000000       0.12500000 </v>
   <v>      -0.43750000       0.50000000       0.12500000 </v>
   <v>      -0.37500000       0.50000000       0.12500000 </v>
   <v>      -0.31250000       0.50000000       0.12500000 </v>
   <v>      -0.25000000       0.50000000       0.12500000 </v>
   <v>      -0.18750000       0.50000000       0.12500000 </v>
   <v>      -0.12500000       0.50000000       0.12500000 </v>
   <v>      -0.06250000       0.50000000       0.12500000 </v>
   <v>       0.00000000      -0.43750000       0.12500000 </v>
   <v>       0.06250000      -0.43750000       0.12500000 </v>
   <v>       0.12500000      -0.43750000       0.12500000 </v>
   <v>       0.18750000      -0.43750000       0.12500000 </v>
   <v>       0.25000000      -0.43750000       0.12500000 </v>
   <v>       0.31250000      -0.43750000       0.12500000 </v>
   <v>       0.37500000      -0.43750000       0.12500000 </v>
   <v>       0.43750000      -0.43750000       0.12500000 </v>
   <v>       0.50000000      -0.43750000       0.12500000 </v>
   <v>      -0.43750000      -0.43750000       0.12500000 </v>
   <v>      -0.37500000      -0.43750000       0.12500000 </v>
   <v>      -0.31250000      -0.43750000       0.12500000 </v>
   <v>      -0.25000000      -0.43750000       0.12500000 </v>
   <v>      -0.18750000      -0.43750000       0.12500000 </v>
   <v>      -0.12500000      -0.43750000       0.12500000 </v>
   <v>      -0.06250000      -0.43750000       0.12500000 </v>
   <v>       0.00000000      -0.37500000       0.12500000 </v>
   <v>       0.06250000      -0.37500000       0.12500000 </v>
   <v>       0.12500000      -0.37500000       0.12500000 </v>
   <v>       0.18750000      -0.37500000       0.12500000 </v>
   <v>       0.25000000      -0.37500000       0.12500000 </v>
   <v>       0.31250000      -0.37500000       0.12500000 </v>
   <v>       0.37500000      -0.37500000       0.12500000 </v>
   <v>       0.43750000      -0.37500000       0.12500000 </v>
   <v>       0.50000000      -0.37500000       0.12500000 </v>
   <v>      -0.43750000      -0.37500000       0.12500000 </v>
   <v>      -0.37500000      -0.37500000       0.12500000 </v>
   <v>      -0.31250000      -0.37500000       0.12500000 </v>
   <v>      -0.25000000      -0.37500000       0.12500000 </v>
   <v>      -0.18750000      -0.37500000       0.12500000 </v>
   <v>      -0.12500000      -0.37500000       0.12500000 </v>
   <v>      -0.06250000      -0.37500000       0.12500000 </v>
   <v>       0.00000000      -0.31250000       0.12500000 </v>
   <v>       0.06250000      -0.31250000       0.12500000 </v>
   <v>       0.12500000      -0.31250000       0.12500000 </v>
   <v>       0.18750000      -0.31250000       0.12500000 </v>
   <v>       0.25000000      -0.31250000       0.12500000 </v>
   <v>       0.31250000      -0.31250000       0.12500000 </v>
   <v>       0.37500000      -0.31250000       0.12500000 </v>
   <v>       0.43750000      -0.31250000       0.12500000 </v>
   <v>       0.50000000      -0.31250000       0.12500000 </v>
   <v>      -0.43750000      -0.31250000       0.12500000 </v>
   <v>      -0.37500000      -0.31250000       0.12500000 </v>
   <v>      -0.31250000      -0.31250000       0.12500000 </v>
   <v>      -0.25000000      -0.31250000       0.12500000 </v>
   <v>      -0.18750000      -0.31250000       0.12500000 </v>
   <v>      -0.12500000      -0.31250000       0.12500000 </v>
   <v>      -0.06250000      -0.31250000       0.12500000 </v>
   <v>       0.00000000      -0.25000000       0.12500000 </v>
   <v>       0.06250000      -0.25000000       0.12500000 </v>
   <v>       0.12500000      -0.25000000       0.12500000 </v>
   <v>       0.18750000      -0.25000000       0.12500000 </v>
   <v>       0.25000000      -0.25000000       0.12500000 </v>
   <v>       0.31250000      -0.25000000       0.12500000 </v>
   <v>       0.37500000      -0.25000000       0.12500000 </v>
   <v>       0.43750000      -0.25000000       0.12500000 </v>
   <v>       0.50000000      -0.25000000       0.12500000 </v>
   <v>      -0.43750000      -0.25000000       0.12500000 </v>
   <v>      -0.37500000      -0.25000000       0.12500000 </v>
   <v>      -0.31250000      -0.25000000       0.12500000 </v>
   <v>      -0.25000000      -0.25000000       0.12500000 </v>
   <v>      -0.18750000      -0.25000000       0.12500000 </v>
   <v>      -0.12500000      -0.25000000       0.12500000 </v>
   <v>      -0.06250000      -0.25000000       0.12500000 </v>
   <v>       0.00000000      -0.18750000       0.12500000 </v>
   <v>       0.06250000      -0.18750000       0.12500000 </v>
   <v>       0.12500000      -0.18750000       0.12500000 </v>
   <v>       0.18750000      -0.18750000       0.12500000 </v>
   <v>       0.25000000      -0.18750000       0.12500000 </v>
   <v>       0.31250000      -0.18750000       0.12500000 </v>
   <v>       0.37500000      -0.18750000       0.12500000 </v>
   <v>       0.43750000      -0.18750000       0.12500000 </v>
   <v>       0.50000000      -0.18750000       0.12500000 </v>
   <v>      -0.43750000      -0.18750000       0.12500000 </v>
   <v>      -0.37500000      -0.18750000       0.12500000 </v>
   <v>      -0.31250000      -0.18750000       0.12500000 </v>
   <v>      -0.25000000      -0.18750000       0.12500000 </v>
   <v>      -0.18750000      -0.18750000       0.12500000 </v>
   <v>      -0.12500000      -0.18750000       0.12500000 </v>
   <v>      -0.06250000      -0.18750000       0.12500000 </v>
   <v>       0.00000000      -0.12500000       0.12500000 </v>
   <v>       0.06250000      -0.12500000       0.12500000 </v>
   <v>       0.12500000      -0.12500000       0.12500000 </v>
   <v>       0.18750000      -0.12500000       0.12500000 </v>
   <v>       0.25000000      -0.12500000       0.12500000 </v>
   <v>       0.31250000      -0.12500000       0.12500000 </v>
   <v>       0.37500000      -0.12500000       0.12500000 </v>
   <v>       0.43750000      -0.12500000       0.12500000 </v>
   <v>       0.50000000      -0.12500000       0.12500000 </v>
   <v>      -0.43750000      -0.12500000       0.12500000 </v>
   <v>      -0.37500000      -0.12500000       0.12500000 </v>
   <v>      -0.31250000      -0.12500000       0.12500000 </v>
   <v>      -0.25000000      -0.12500000       0.12500000 </v>
   <v>      -0.18750000      -0.12500000       0.12500000 </v>
   <v>      -0.12500000      -0.12500000       0.12500000 </v>
   <v>      -0.06250000      -0.12500000       0.12500000 </v>
   <v>       0.00000000      -0.06250000       0.12500000 </v>
   <v>       0.06250000      -0.06250000       0.12500000 </v>
   <v>       0.12500000      -0.06250000       0.12500000 </v>
   <v>       0.18750000      -0.06250000       0.12500000 </v>
   <v>       0.25000000      -0.06250000       0.12500000 </v>
   <v>       0.31250000      -0.06250000       0.12500000 </v>
   <v>       0.37500000      -0.06250000       0.12500000 </v>
   <v>       0.43750000      -0.06250000       0.12500000 </v>
   <v>       0.50000000      -0.06250000       0.12500000 </v>
   <v>      -0.43750000      -0.06250000       0.12500000 </v>
   <v>      -0.37500000      -0.06250000       0.12500000 </v>
   <v>      -0.31250000      -0.06250000       0.12500000 </v>
   <v>      -0.25000000      -0.06250000       0.12500000 </v>
   <v>      -0.18750000      -0.06250000       0.12500000 </v>
   <v>      -0.12500000      -0.06250000       0.12500000 </v>
   <v>      -0.06250000      -0.06250000       0.12500000 </v>
   <v>       0.00000000       0.00000000       0.18750000 </v>
   <v>       0.06250000       0.00000000       0.18750000 </v>
   <v>       0.12500000       0.00000000       0.18750000 </v>
   <v>       0.18750000       0.00000000       0.18750000 </v>
   <v>       0.25000000       0.00000000       0.18750000 </v>
   <v>       0.31250000       0.00000000       0.18750000 </v>
   <v>       0.37500000       0.00000000       0.18750000 </v>
   <v>       0.43750000       0.00000000       0.18750000 </v>
   <v>       0.50000000       0.00000000       0.18750000 </v>
   <v>      -0.43750000       0.00000000       0.18750000 </v>
   <v>      -0.37500000       0.00000000       0.18750000 </v>
   <v>      -0.31250000       0.00000000       0.18750000 </v>
   <v>      -0.25000000       0.00000000       0.18750000 </v>
   <v>      -0.18750000       0.00000000       0.18750000 </v>
   <v>      -0.12500000       0.00000000       0.18750000 </v>
   <v>      -0.06250000       0.00000000       0.18750000 </v>
   <v>       0.00000000       0.06250000       0.18750000 </v>
   <v>       0.06250000       0.06250000       0.18750000 </v>
   <v>       0.12500000       0.06250000       0.18750000 </v>
   <v>       0.18750000       0.06250000       0.18750000 </v>
   <v>       0.25000000       0.06250000       0.18750000 </v>
   <v>       0.31250000       0.06250000       0.18750000 </v>
   <v>       0.37500000       0.06250000       0.18750000 </v>
   <v>       0.43750000       0.06250000       0.18750000 </v>
   <v>       0.50000000       0.06250000       0.18750000 </v>
   <v>      -0.43750000       0.06250000       0.18750000 </v>
   <v>      -0.37500000       0.06250000       0.18750000 </v>
   <v>      -0.31250000       0.06250000       0.18750000 </v>
   <v>      -0.25000000       0.06250000       0.18750000 </v>
   <v>      -0.18750000       0.06250000       0.18750000 </v>
   <v>      -0.12500000       0.06250000       0.18750000 </v>
   <v>      -0.06250000       0.06250000       0.18750000 </v>
   <v>       0.00000000       0.12500000       0.18750000 </v>
   <v>       0.06250000       0.12500000       0.18750000 </v>
   <v>       0.12500000       0.12500000       0.18750000 </v>
   <v>       0.18750000       0.12500000       0.18750000 </v>
   <v>       0.25000000       0.12500000       0.18750000 </v>
   <v>       0.31250000       0.12500000       0.18750000 </v>
   <v>       0.37500000       0.12500000       0.18750000 </v>
   <v>       0.43750000       0.12500000       0.18750000 </v>
   <v>       0.50000000       0.12500000       0.18750000 </v>
   <v>      -0.43750000       0.12500000       0.18750000 </v>
   <v>      -0.37500000       0.12500000       0.18750000 </v>
   <v>      -0.31250000       0.12500000       0.18750000 </v>
   <v>      -0.25000000       0.12500000       0.18750000 </v>
   <v>      -0.18750000       0.12500000       0.18750000 </v>
   <v>      -0.12500000       0.12500000       0.18750000 </v>
   <v>      -0.06250000       0.12500000       0.18750000 </v>
   <v>       0.00000000       0.18750000       0.18750000 </v>
   <v>       0.06250000       0.18750000       0.18750000 </v>
   <v>       0.12500000       0.18750000       0.18750000 </v>
   <v>       0.18750000       0.18750000       0.18750000 </v>
   <v>       0.25000000       0.18750000       0.18750000 </v>
   <v>       0.31250000       0.18750000       0.18750000 </v>
   <v>       0.37500000       0.18750000       0.18750000 </v>
   <v>       0.43750000       0.18750000       0.18750000 </v>
   <v>       0.50000000       0.18750000       0.18750000 </v>
   <v>      -0.43750000       0.18750000       0.18750000 </v>
   <v>      -0.37500000       0.18750000       0.18750000 </v>
   <v>      -0.31250000       0.18750000       0.18750000 </v>
   <v>      -0.25000000       0.18750000       0.18750000 </v>
   <v>      -0.18750000       0.18750000       0.18750000 </v>
   <v>      -0.12500000       0.18750000       0.18750000 </v>
   <v>      -0.06250000       0.18750000       0.18750000 </v>
   <v>       0.00000000       0.25000000       0.18750000 </v>
   <v>       0.06250000       0.25000000       0.18750000 </v>
   <v>       0.12500000       0.25000000       0.18750000 </v>
   <v>       0.18750000       0.25000000       0.18750000 </v>
   <v>       0.25000000       0.25000000       0.18750000 </v>
   <v>       0.31250000       0.25000000       0.18750000 </v>
   <v>       0.37500000       0.25000000       0.18750000 </v>
   <v>       0.43750000       0.25000000       0.18750000 </v>
   <v>       0.50000000       0.25000000       0.18750000 </v>
   <v>      -0.43750000       0.25000000       0.18750000 </v>
   <v>      -0.37500000       0.25000000       0.18750000 </v>
   <v>      -0.31250000       0.25000000       0.18750000 </v>
   <v>      -0.25000000       0.25000000       0.18750000 </v>
   <v>      -0.18750000       0.25000000       0.18750000 </v>
   <v>      -0.12500000       0.25000000       0.18750000 </v>
   <v>      -0.06250000       0.25000000       0.18750000 </v>
   <v>       0.00000000       0.31250000       0.18750000 </v>
   <v>       0.06250000       0.31250000       0.18750000 </v>
   <v>       0.12500000       0.31250000       0.18750000 </v>
   <v>       0.18750000       0.31250000       0.18750000 </v>
   <v>       0.25000000       0.31250000       0.18750000 </v>
   <v>       0.31250000       0.31250000       0.18750000 </v>
   <v>       0.37500000       0.31250000       0.18750000 </v>
   <v>       0.43750000       0.31250000       0.18750000 </v>
   <v>       0.50000000       0.31250000       0.18750000 </v>
   <v>      -0.43750000       0.31250000       0.18750000 </v>
   <v>      -0.37500000       0.31250000       0.18750000 </v>
   <v>      -0.31250000       0.31250000       0.18750000 </v>
   <v>      -0.25000000       0.31250000       0.18750000 </v>
   <v>      -0.18750000       0.31250000       0.18750000 </v>
   <v>      -0.12500000       0.31250000       0.18750000 </v>
   <v>      -0.06250000       0.31250000       0.18750000 </v>
   <v>       0.00000000       0.37500000       0.18750000 </v>
   <v>       0.06250000       0.37500000       0.18750000 </v>
   <v>       0.12500000       0.37500000       0.18750000 </v>
   <v>       0.18750000       0.37500000       0.18750000 </v>
   <v>       0.25000000       0.37500000       0.18750000 </v>
   <v>       0.31250000       0.37500000       0.18750000 </v>
   <v>       0.37500000       0.37500000       0.18750000 </v>
   <v>       0.43750000       0.37500000       0.18750000 </v>
   <v>       0.50000000       0.37500000       0.18750000 </v>
   <v>      -0.43750000       0.37500000       0.18750000 </v>
   <v>      -0.37500000       0.37500000       0.18750000 </v>
   <v>      -0.31250000       0.37500000       0.18750000 </v>
   <v>      -0.25000000       0.37500000       0.18750000 </v>
   <v>      -0.18750000       0.37500000       0.18750000 </v>
   <v>      -0.12500000       0.37500000       0.18750000 </v>
   <v>      -0.06250000       0.37500000       0.18750000 </v>
   <v>       0.00000000       0.43750000       0.18750000 </v>
   <v>       0.06250000       0.43750000       0.18750000 </v>
   <v>       0.12500000       0.43750000       0.18750000 </v>
   <v>       0.18750000       0.43750000       0.18750000 </v>
   <v>       0.25000000       0.43750000       0.18750000 </v>
   <v>       0.31250000       0.43750000       0.18750000 </v>
   <v>       0.37500000       0.43750000       0.18750000 </v>
   <v>       0.43750000       0.43750000       0.18750000 </v>
   <v>       0.50000000       0.43750000       0.18750000 </v>
   <v>      -0.43750000       0.43750000       0.18750000 </v>
   <v>      -0.37500000       0.43750000       0.18750000 </v>
   <v>      -0.31250000       0.43750000       0.18750000 </v>
   <v>      -0.25000000       0.43750000       0.18750000 </v>
   <v>      -0.18750000       0.43750000       0.18750000 </v>
   <v>      -0.12500000       0.43750000       0.18750000 </v>
   <v>      -0.06250000       0.43750000       0.18750000 </v>
   <v>       0.00000000       0.50000000       0.18750000 </v>
   <v>       0.06250000       0.50000000       0.18750000 </v>
   <v>       0.12500000       0.50000000       0.18750000 </v>
   <v>       0.18750000       0.50000000       0.18750000 </v>
   <v>       0.25000000       0.50000000       0.18750000 </v>
   <v>       0.31250000       0.50000000       0.18750000 </v>
   <v>       0.37500000       0.50000000       0.18750000 </v>
   <v>       0.43750000       0.50000000       0.18750000 </v>
   <v>       0.50000000       0.50000000       0.18750000 </v>
   <v>      -0.43750000       0.50000000       0.18750000 </v>
   <v>      -0.37500000       0.50000000       0.18750000 </v>
   <v>      -0.31250000       0.50000000       0.18750000 </v>
   <v>      -0.25000000       0.50000000       0.18750000 </v>
   <v>      -0.18750000       0.50000000       0.18750000 </v>
   <v>      -0.12500000       0.50000000       0.18750000 </v>
   <v>      -0.06250000       0.50000000       0.18750000 </v>
   <v>       0.00000000      -0.43750000       0.18750000 </v>
   <v>       0.06250000      -0.43750000       0.18750000 </v>
   <v>       0.12500000      -0.43750000       0.18750000 </v>
   <v>       0.18750000      -0.43750000       0.18750000 </v>
   <v>       0.25000000      -0.43750000       0.18750000 </v>
   <v>       0.31250000      -0.43750000       0.18750000 </v>
   <v>       0.37500000      -0.43750000       0.18750000 </v>
   <v>       0.43750000      -0.43750000       0.18750000 </v>
   <v>       0.50000000      -0.43750000       0.18750000 </v>
   <v>      -0.43750000      -0.43750000       0.18750000 </v>
   <v>      -0.37500000      -0.43750000       0.18750000 </v>
   <v>      -0.31250000      -0.43750000       0.18750000 </v>
   <v>      -0.25000000      -0.43750000       0.18750000 </v>
   <v>      -0.18750000      -0.43750000       0.18750000 </v>
   <v>      -0.12500000      -0.43750000       0.18750000 </v>
   <v>      -0.06250000      -0.43750000       0.18750000 </v>
   <v>       0.00000000      -0.37500000       0.18750000 </v>
   <v>       0.06250000      -0.37500000       0.18750000 </v>
   <v>       0.12500000      -0.37500000       0.18750000 </v>
   <v>       0.18750000      -0.37500000       0.18750000 </v>
   <v>       0.25000000      -0.37500000       0.18750000 </v>
   <v>       0.31250000      -0.37500000       0.18750000 </v>
   <v>       0.37500000      -0.37500000       0.18750000 </v>
   <v>       0.43750000      -0.37500000       0.18750000 </v>
   <v>       0.50000000      -0.37500000       0.18750000 </v>
   <v>      -0.43750000      -0.37500000       0.18750000 </v>
   <v>      -0.37500000      -0.37500000       0.18750000 </v>
   <v>      -0.31250000      -0.37500000       0.18750000 </v>
   <v>      -0.25000000      -0.37500000       0.18750000 </v>
   <v>      -0.18750000      -0.37500000       0.18750000 </v>
   <v>      -0.12500000      -0.37500000       0.18750000 </v>
   <v>      -0.06250000      -0.37500000       0.18750000 </v>
   <v>       0.00000000      -0.31250000       0.18750000 </v>
   <v>       0.06250000      -0.31250000       0.18750000 </v>
   <v>       0.12500000      -0.31250000       0.18750000 </v>
   <v>       0.18750000      -0.31250000       0.18750000 </v>
   <v>       0.25000000      -0.31250000       0.18750000 </v>
   <v>       0.31250000      -0.31250000       0.18750000 </v>
   <v>       0.37500000      -0.31250000       0.18750000 </v>
   <v>       0.43750000      -0.31250000       0.18750000 </v>
   <v>       0.50000000      -0.31250000       0.18750000 </v>
   <v>      -0.43750000      -0.31250000       0.18750000 </v>
   <v>      -0.37500000      -0.31250000       0.18750000 </v>
   <v>      -0.31250000      -0.31250000       0.18750000 </v>
   <v>      -0.25000000      -0.31250000       0.18750000 </v>
   <v>      -0.18750000      -0.31250000       0.18750000 </v>
   <v>      -0.12500000      -0.31250000       0.18750000 </v>
   <v>      -0.06250000      -0.31250000       0.18750000 </v>
   <v>       0.00000000      -0.25000000       0.18750000 </v>
   <v>       0.06250000      -0.25000000       0.18750000 </v>
   <v>       0.12500000      -0.25000000       0.18750000 </v>
   <v>       0.18750000      -0.25000000       0.18750000 </v>
   <v>       0.25000000      -0.25000000       0.18750000 </v>
   <v>       0.31250000      -0.25000000       0.18750000 </v>
   <v>       0.37500000      -0.25000000       0.18750000 </v>
   <v>       0.43750000      -0.25000000       0.18750000 </v>
   <v>       0.50000000      -0.25000000       0.18750000 </v>
   <v>      -0.43750000      -0.25000000       0.18750000 </v>
   <v>      -0.37500000      -0.25000000       0.18750000 </v>
   <v>      -0.31250000      -0.25000000       0.18750000 </v>
   <v>      -0.25000000      -0.25000000       0.18750000 </v>
   <v>      -0.18750000      -0.25000000       0.18750000 </v>
   <v>      -0.12500000      -0.25000000       0.18750000 </v>
   <v>      -0.06250000      -0.25000000       0.18750000 </v>
   <v>       0.00000000      -0.18750000       0.18750000 </v>
   <v>       0.06250000      -0.18750000       0.18750000 </v>
   <v>       0.12500000      -0.18750000       0.18750000 </v>
   <v>       0.18750000      -0.18750000       0.18750000 </v>
   <v>       0.25000000      -0.18750000       0.18750000 </v>
   <v>       0.31250000      -0.18750000       0.18750000 </v>
   <v>       0.37500000      -0.18750000       0.18750000 </v>
   <v>       0.43750000      -0.18750000       0.18750000 </v>
   <v>       0.50000000      -0.18750000       0.18750000 </v>
   <v>      -0.43750000      -0.18750000       0.18750000 </v>
   <v>      -0.37500000      -0.18750000       0.18750000 </v>
   <v>      -0.31250000      -0.18750000       0.18750000 </v>
   <v>      -0.25000000      -0.18750000       0.18750000 </v>
   <v>      -0.18750000      -0.18750000       0.18750000 </v>
   <v>      -0.12500000      -0.18750000       0.18750000 </v>
   <v>      -0.06250000      -0.18750000       0.18750000 </v>
   <v>       0.00000000      -0.12500000       0.18750000 </v>
   <v>       0.06250000      -0.12500000       0.18750000 </v>
   <v>       0.12500000      -0.12500000       0.18750000 </v>
   <v>       0.18750000      -0.12500000       0.18750000 </v>
   <v>       0.25000000      -0.12500000       0.18750000 </v>
   <v>       0.31250000      -0.12500000       0.18750000 </v>
   <v>       0.37500000      -0.12500000       0.18750000 </v>
   <v>       0.43750000      -0.12500000       0.18750000 </v>
   <v>       0.50000000      -0.12500000       0.18750000 </v>
   <v>      -0.43750000      -0.12500000       0.18750000 </v>
   <v>      -0.37500000      -0.12500000       0.18750000 </v>
   <v>      -0.31250000      -0.12500000       0.18750000 </v>
   <v>      -0.25000000      -0.12500000       0.18750000 </v>
   <v>      -0.18750000      -0.12500000       0.18750000 </v>
   <v>      -0.12500000      -0.12500000       0.18750000 </v>
   <v>      -0.06250000      -0.12500000       0.18750000 </v>
   <v>       0.00000000      -0.06250000       0.18750000 </v>
   <v>       0.06250000      -0.06250000       0.18750000 </v>
   <v>       0.12500000      -0.06250000       0.18750000 </v>
   <v>       0.18750000      -0.06250000       0.18750000 </v>
   <v>       0.25000000      -0.06250000       0.18750000 </v>
   <v>       0.31250000      -0.06250000       0.18750000 </v>
   <v>       0.37500000      -0.06250000       0.18750000 </v>
   <v>       0.43750000      -0.06250000       0.18750000 </v>
   <v>       0.50000000      -0.06250000       0.18750000 </v>
   <v>      -0.43750000      -0.06250000       0.18750000 </v>
   <v>      -0.37500000      -0.06250000       0.18750000 </v>
   <v>      -0.31250000      -0.06250000       0.18750000 </v>
   <v>      -0.25000000      -0.06250000       0.18750000 </v>
   <v>      -0.18750000      -0.06250000       0.18750000 </v>
   <v>      -0.12500000      -0.06250000       0.18750000 </v>
   <v>      -0.06250000      -0.06250000       0.18750000 </v>
   <v>       0.00000000       0.00000000       0.25000000 </v>
   <v>       0.06250000       0.00000000       0.25000000 </v>
   <v>       0.12500000       0.00000000       0.25000000 </v>
   <v>       0.18750000       0.00000000       0.25000000 </v>
   <v>       0.25000000       0.00000000       0.25000000 </v>
   <v>       0.31250000       0.00000000       0.25000000 </v>
   <v>       0.37500000       0.00000000       0.25000000 </v>
   <v>       0.43750000       0.00000000       0.25000000 </v>
   <v>       0.50000000       0.00000000       0.25000000 </v>
   <v>      -0.43750000       0.00000000       0.25000000 </v>
   <v>      -0.37500000       0.00000000       0.25000000 </v>
   <v>      -0.31250000       0.00000000       0.25000000 </v>
   <v>      -0.25000000       0.00000000       0.25000000 </v>
   <v>      -0.18750000       0.00000000       0.25000000 </v>
   <v>      -0.12500000       0.00000000       0.25000000 </v>
   <v>      -0.06250000       0.00000000       0.25000000 </v>
   <v>       0.00000000       0.06250000       0.25000000 </v>
   <v>       0.06250000       0.06250000       0.25000000 </v>
   <v>       0.12500000       0.06250000       0.25000000 </v>
   <v>       0.18750000       0.06250000       0.25000000 </v>
   <v>       0.25000000       0.06250000       0.25000000 </v>
   <v>       0.31250000       0.06250000       0.25000000 </v>
   <v>       0.37500000       0.06250000       0.25000000 </v>
   <v>       0.43750000       0.06250000       0.25000000 </v>
   <v>       0.50000000       0.06250000       0.25000000 </v>
   <v>      -0.43750000       0.06250000       0.25000000 </v>
   <v>      -0.37500000       0.06250000       0.25000000 </v>
   <v>      -0.31250000       0.06250000       0.25000000 </v>
   <v>      -0.25000000       0.06250000       0.25000000 </v>
   <v>      -0.18750000       0.06250000       0.25000000 </v>
   <v>      -0.12500000       0.06250000       0.25000000 </v>
   <v>      -0.06250000       0.06250000       0.25000000 </v>
   <v>       0.00000000       0.12500000       0.25000000 </v>
   <v>       0.06250000       0.12500000       0.25000000 </v>
   <v>       0.12500000       0.12500000       0.25000000 </v>
   <v>       0.18750000       0.12500000       0.25000000 </v>
   <v>       0.25000000       0.12500000       0.25000000 </v>
   <v>       0.31250000       0.12500000       0.25000000 </v>
   <v>       0.37500000       0.12500000       0.25000000 </v>
   <v>       0.43750000       0.12500000       0.25000000 </v>
   <v>       0.50000000       0.12500000       0.25000000 </v>
   <v>      -0.43750000       0.12500000       0.25000000 </v>
   <v>      -0.37500000       0.12500000       0.25000000 </v>
   <v>      -0.31250000       0.12500000       0.25000000 </v>
   <v>      -0.25000000       0.12500000       0.25000000 </v>
   <v>      -0.18750000       0.12500000       0.25000000 </v>
   <v>      -0.12500000       0.12500000       0.25000000 </v>
   <v>      -0.06250000       0.12500000       0.25000000 </v>
   <v>       0.00000000       0.18750000       0.25000000 </v>
   <v>       0.06250000       0.18750000       0.25000000 </v>
   <v>       0.12500000       0.18750000       0.25000000 </v>
   <v>       0.18750000       0.18750000       0.25000000 </v>
   <v>       0.25000000       0.18750000       0.25000000 </v>
   <v>       0.31250000       0.18750000       0.25000000 </v>
   <v>       0.37500000       0.18750000       0.25000000 </v>
   <v>       0.43750000       0.18750000       0.25000000 </v>
   <v>       0.50000000       0.18750000       0.25000000 </v>
   <v>      -0.43750000       0.18750000       0.25000000 </v>
   <v>      -0.37500000       0.18750000       0.25000000 </v>
   <v>      -0.31250000       0.18750000       0.25000000 </v>
   <v>      -0.25000000       0.18750000       0.25000000 </v>
   <v>      -0.18750000       0.18750000       0.25000000 </v>
   <v>      -0.12500000       0.18750000       0.25000000 </v>
   <v>      -0.06250000       0.18750000       0.25000000 </v>
   <v>       0.00000000       0.25000000       0.25000000 </v>
   <v>       0.06250000       0.25000000       0.25000000 </v>
   <v>       0.12500000       0.25000000       0.25000000 </v>
   <v>       0.18750000       0.25000000       0.25000000 </v>
   <v>       0.25000000       0.25000000       0.25000000 </v>
   <v>       0.31250000       0.25000000       0.25000000 </v>
   <v>       0.37500000       0.25000000       0.25000000 </v>
   <v>       0.43750000       0.25000000       0.25000000 </v>
   <v>       0.50000000       0.25000000       0.25000000 </v>
   <v>      -0.43750000       0.25000000       0.25000000 </v>
   <v>      -0.37500000       0.25000000       0.25000000 </v>
   <v>      -0.31250000       0.25000000       0.25000000 </v>
   <v>      -0.25000000       0.25000000       0.25000000 </v>
   <v>      -0.18750000       0.25000000       0.25000000 </v>
   <v>      -0.12500000       0.25000000       0.25000000 </v>
   <v>      -0.06250000       0.25000000       0.25000000 </v>
   <v>       0.00000000       0.31250000       0.25000000 </v>
   <v>       0.06250000       0.31250000       0.25000000 </v>
   <v>       0.12500000       0.31250000       0.25000000 </v>
   <v>       0.18750000       0.31250000       0.25000000 </v>
   <v>       0.25000000       0.31250000       0.25000000 </v>
   <v>       0.31250000       0.31250000       0.25000000 </v>
   <v>       0.37500000       0.31250000       0.25000000 </v>
   <v>       0.43750000       0.31250000       0.25000000 </v>
   <v>       0.50000000       0.31250000       0.25000000 </v>
   <v>      -0.43750000       0.31250000       0.25000000 </v>
   <v>      -0.37500000       0.31250000       0.25000000 </v>
   <v>      -0.31250000       0.31250000       0.25000000 </v>
   <v>      -0.25000000       0.31250000       0.25000000 </v>
   <v>      -0.18750000       0.31250000       0.25000000 </v>
   <v>      -0.12500000       0.31250000       0.25000000 </v>
   <v>      -0.06250000       0.31250000       0.25000000 </v>
   <v>       0.00000000       0.37500000       0.25000000 </v>
   <v>       0.06250000       0.37500000       0.25000000 </v>
   <v>       0.12500000       0.37500000       0.25000000 </v>
   <v>       0.18750000       0.37500000       0.25000000 </v>
   <v>       0.25000000       0.37500000       0.25000000 </v>
   <v>       0.31250000       0.37500000       0.25000000 </v>
   <v>       0.37500000       0.37500000       0.25000000 </v>
   <v>       0.43750000       0.37500000       0.25000000 </v>
   <v>       0.50000000       0.37500000       0.25000000 </v>
   <v>      -0.43750000       0.37500000       0.25000000 </v>
   <v>      -0.37500000       0.37500000       0.25000000 </v>
   <v>      -0.31250000       0.37500000       0.25000000 </v>
   <v>      -0.25000000       0.37500000       0.25000000 </v>
   <v>      -0.18750000       0.37500000       0.25000000 </v>
   <v>      -0.12500000       0.37500000       0.25000000 </v>
   <v>      -0.06250000       0.37500000       0.25000000 </v>
   <v>       0.00000000       0.43750000       0.25000000 </v>
   <v>       0.06250000       0.43750000       0.25000000 </v>
   <v>       0.12500000       0.43750000       0.25000000 </v>
   <v>       0.18750000       0.43750000       0.25000000 </v>
   <v>       0.25000000       0.43750000       0.25000000 </v>
   <v>       0.31250000       0.43750000       0.25000000 </v>
   <v>       0.37500000       0.43750000       0.25000000 </v>
   <v>       0.43750000       0.43750000       0.25000000 </v>
   <v>       0.50000000       0.43750000       0.25000000 </v>
   <v>      -0.43750000       0.43750000       0.25000000 </v>
   <v>      -0.37500000       0.43750000       0.25000000 </v>
   <v>      -0.31250000       0.43750000       0.25000000 </v>
   <v>      -0.25000000       0.43750000       0.25000000 </v>
   <v>      -0.18750000       0.43750000       0.25000000 </v>
   <v>      -0.12500000       0.43750000       0.25000000 </v>
   <v>      -0.06250000       0.43750000       0.25000000 </v>
   <v>       0.00000000       0.50000000       0.25000000 </v>
   <v>       0.06250000       0.50000000       0.25000000 </v>
   <v>       0.12500000       0.50000000       0.25000000 </v>
   <v>       0.18750000       0.50000000       0.25000000 </v>
   <v>       0.25000000       0.50000000       0.25000000 </v>
   <v>       0.31250000       0.50000000       0.25000000 </v>
   <v>       0.37500000       0.50000000       0.25000000 </v>
   <v>       0.43750000       0.50000000       0.25000000 </v>
   <v>       0.50000000       0.50000000       0.25000000 </v>
   <v>      -0.43750000       0.50000000       0.25000000 </v>
   <v>      -0.37500000       0.50000000       0.25000000 </v>
   <v>      -0.31250000       0.50000000       0.25000000 </v>
   <v>      -0.25000000       0.50000000       0.25000000 </v>
   <v>      -0.18750000       0.50000000       0.25000000 </v>
   <v>      -0.12500000       0.50000000       0.25000000 </v>
   <v>      -0.06250000       0.50000000       0.25000000 </v>
   <v>       0.00000000      -0.43750000       0.25000000 </v>
   <v>       0.06250000      -0.43750000       0.25000000 </v>
   <v>       0.12500000      -0.43750000       0.25000000 </v>
   <v>       0.18750000      -0.43750000       0.25000000 </v>
   <v>       0.25000000      -0.43750000       0.25000000 </v>
   <v>       0.31250000      -0.43750000       0.25000000 </v>
   <v>       0.37500000      -0.43750000       0.25000000 </v>
   <v>       0.43750000      -0.43750000       0.25000000 </v>
   <v>       0.50000000      -0.43750000       0.25000000 </v>
   <v>      -0.43750000      -0.43750000       0.25000000 </v>
   <v>      -0.37500000      -0.43750000       0.25000000 </v>
   <v>      -0.31250000      -0.43750000       0.25000000 </v>
   <v>      -0.25000000      -0.43750000       0.25000000 </v>
   <v>      -0.18750000      -0.43750000       0.25000000 </v>
   <v>      -0.12500000      -0.43750000       0.25000000 </v>
   <v>      -0.06250000      -0.43750000       0.25000000 </v>
   <v>       0.00000000      -0.37500000       0.25000000 </v>
   <v>       0.06250000      -0.37500000       0.25000000 </v>
   <v>       0.12500000      -0.37500000       0.25000000 </v>
   <v>       0.18750000      -0.37500000       0.25000000 </v>
   <v>       0.25000000      -0.37500000       0.25000000 </v>
   <v>       0.31250000      -0.37500000       0.25000000 </v>
   <v>       0.37500000      -0.37500000       0.25000000 </v>
   <v>       0.43750000      -0.37500000       0.25000000 </v>
   <v>       0.50000000      -0.37500000       0.25000000 </v>
   <v>      -0.43750000      -0.37500000       0.25000000 </v>
   <v>      -0.37500000      -0.37500000       0.25000000 </v>
   <v>      -0.31250000      -0.37500000       0.25000000 </v>
   <v>      -0.25000000      -0.37500000       0.25000000 </v>
   <v>      -0.18750000      -0.37500000       0.25000000 </v>
   <v>      -0.12500000      -0.37500000       0.25000000 </v>
   <v>      -0.06250000      -0.37500000       0.25000000 </v>
   <v>       0.00000000      -0.31250000       0.25000000 </v>
   <v>       0.06250000      -0.31250000       0.25000000 </v>
   <v>       0.12500000      -0.31250000       0.25000000 </v>
   <v>       0.18750000      -0.31250000       0.25000000 </v>
   <v>       0.25000000      -0.31250000       0.25000000 </v>
   <v>       0.31250000      -0.31250000       0.25000000 </v>
   <v>       0.37500000      -0.31250000       0.25000000 </v>
   <v>       0.43750000      -0.31250000       0.25000000 </v>
   <v>       0.50000000      -0.31250000       0.25000000 </v>
   <v>      -0.43750000      -0.31250000       0.25000000 </v>
   <v>      -0.37500000      -0.31250000       0.25000000 </v>
   <v>      -0.31250000      -0.31250000       0.25000000 </v>
   <v>      -0.25000000      -0.31250000       0.25000000 </v>
   <v>      -0.18750000      -0.31250000       0.25000000 </v>
   <v>      -0.12500000      -0.31250000       0.25000000 </v>
   <v>      -0.06250000      -0.31250000       0.25000000 </v>
   <v>       0.00000000      -0.25000000       0.25000000 </v>
   <v>       0.06250000      -0.25000000       0.25000000 </v>
   <v>       0.12500000      -0.25000000       0.25000000 </v>
   <v>       0.18750000      -0.25000000       0.25000000 </v>
   <v>       0.25000000      -0.25000000       0.25000000 </v>
   <v>       0.31250000      -0.25000000       0.25000000 </v>
   <v>       0.37500000      -0.25000000       0.25000000 </v>
   <v>       0.43750000      -0.25000000       0.25000000 </v>
   <v>       0.50000000      -0.25000000       0.25000000 </v>
   <v>      -0.43750000      -0.25000000       0.25000000 </v>
   <v>      -0.37500000      -0.25000000       0.25000000 </v>
   <v>      -0.31250000      -0.25000000       0.25000000 </v>
   <v>      -0.25000000      -0.25000000       0.25000000 </v>
   <v>      -0.18750000      -0.25000000       0.25000000 </v>
   <v>      -0.12500000      -0.25000000       0.25000000 </v>
   <v>      -0.06250000      -0.25000000       0.25000000 </v>
   <v>       0.00000000      -0.18750000       0.25000000 </v>
   <v>       0.06250000      -0.18750000       0.25000000 </v>
   <v>       0.12500000      -0.18750000       0.25000000 </v>
   <v>       0.18750000      -0.18750000       0.25000000 </v>
   <v>       0.25000000      -0.18750000       0.25000000 </v>
   <v>       0.31250000      -0.18750000       0.25000000 </v>
   <v>       0.37500000      -0.18750000       0.25000000 </v>
   <v>       0.43750000      -0.18750000       0.25000000 </v>
   <v>       0.50000000      -0.18750000       0.25000000 </v>
   <v>      -0.43750000      -0.18750000       0.25000000 </v>
   <v>      -0.37500000      -0.18750000       0.25000000 </v>
   <v>      -0.31250000      -0.18750000       0.25000000 </v>
   <v>      -0.25000000      -0.18750000       0.25000000 </v>
   <v>      -0.18750000      -0.18750000       0.25000000 </v>
   <v>      -0.12500000      -0.18750000       0.25000000 </v>
   <v>      -0.06250000      -0.18750000       0.25000000 </v>
   <v>       0.00000000      -0.12500000       0.25000000 </v>
   <v>       0.06250000      -0.12500000       0.25000000 </v>
   <v>       0.12500000      -0.12500000       0.25000000 </v>
   <v>       0.18750000      -0.12500000       0.25000000 </v>
   <v>       0.25000000      -0.12500000       0.25000000 </v>
   <v>       0.31250000      -0.12500000       0.25000000 </v>
   <v>       0.37500000      -0.12500000       0.25000000 </v>
   <v>       0.43750000      -0.12500000       0.25000000 </v>
   <v>       0.50000000      -0.12500000       0.25000000 </v>
   <v>      -0.43750000      -0.12500000       0.25000000 </v>
   <v>      -0.37500000      -0.12500000       0.25000000 </v>
   <v>      -0.31250000      -0.12500000       0.25000000 </v>
   <v>      -0.25000000      -0.12500000       0.25000000 </v>
   <v>      -0.18750000      -0.12500000       0.25000000 </v>
   <v>      -0.12500000      -0.12500000       0.25000000 </v>
   <v>      -0.06250000      -0.12500000       0.25000000 </v>
   <v>       0.00000000      -0.06250000       0.25000000 </v>
   <v>       0.06250000      -0.06250000       0.25000000 </v>
   <v>       0.12500000      -0.06250000       0.25000000 </v>
   <v>       0.18750000      -0.06250000       0.25000000 </v>
   <v>       0.25000000      -0.06250000       0.25000000 </v>
   <v>       0.31250000      -0.06250000       0.25000000 </v>
   <v>       0.37500000      -0.06250000       0.25000000 </v>
   <v>       0.43750000      -0.06250000       0.25000000 </v>
   <v>       0.50000000      -0.06250000       0.25000000 </v>
   <v>      -0.43750000      -0.06250000       0.25000000 </v>
   <v>      -0.37500000      -0.06250000       0.25000000 </v>
   <v>      -0.31250000      -0.06250000       0.25000000 </v>
   <v>      -0.25000000      -0.06250000       0.25000000 </v>
   <v>      -0.18750000      -0.06250000       0.25000000 </v>
   <v>      -0.12500000      -0.06250000       0.25000000 </v>
   <v>      -0.06250000      -0.06250000       0.25000000 </v>
   <v>       0.00000000       0.00000000       0.31250000 </v>
   <v>       0.06250000       0.00000000       0.31250000 </v>
   <v>       0.12500000       0.00000000       0.31250000 </v>
   <v>       0.18750000       0.00000000       0.31250000 </v>
   <v>       0.25000000       0.00000000       0.31250000 </v>
   <v>       0.31250000       0.00000000       0.31250000 </v>
   <v>       0.37500000       0.00000000       0.31250000 </v>
   <v>       0.43750000       0.00000000       0.31250000 </v>
   <v>       0.50000000       0.00000000       0.31250000 </v>
   <v>      -0.43750000       0.00000000       0.31250000 </v>
   <v>      -0.37500000       0.00000000       0.31250000 </v>
   <v>      -0.31250000       0.00000000       0.31250000 </v>
   <v>      -0.25000000       0.00000000       0.31250000 </v>
   <v>      -0.18750000       0.00000000       0.31250000 </v>
   <v>      -0.12500000       0.00000000       0.31250000 </v>
   <v>      -0.06250000       0.00000000       0.31250000 </v>
   <v>       0.00000000       0.06250000       0.31250000 </v>
   <v>       0.06250000       0.06250000       0.31250000 </v>
   <v>       0.12500000       0.06250000       0.31250000 </v>
   <v>       0.18750000       0.06250000       0.31250000 </v>
   <v>       0.25000000       0.06250000       0.31250000 </v>
   <v>       0.31250000       0.06250000       0.31250000 </v>
   <v>       0.37500000       0.06250000       0.31250000 </v>
   <v>       0.43750000       0.06250000       0.31250000 </v>
   <v>       0.50000000       0.06250000       0.31250000 </v>
   <v>      -0.43750000       0.06250000       0.31250000 </v>
   <v>      -0.37500000       0.06250000       0.31250000 </v>
   <v>      -0.31250000       0.06250000       0.31250000 </v>
   <v>      -0.25000000       0.06250000       0.31250000 </v>
   <v>      -0.18750000       0.06250000       0.31250000 </v>
   <v>      -0.12500000       0.06250000       0.31250000 </v>
   <v>      -0.06250000       0.06250000       0.31250000 </v>
   <v>       0.00000000       0.12500000       0.31250000 </v>
   <v>       0.06250000       0.12500000       0.31250000 </v>
   <v>       0.12500000       0.12500000       0.31250000 </v>
   <v>       0.18750000       0.12500000       0.31250000 </v>
   <v>       0.25000000       0.12500000       0.31250000 </v>
   <v>       0.31250000       0.12500000       0.31250000 </v>
   <v>       0.37500000       0.12500000       0.31250000 </v>
   <v>       0.43750000       0.12500000       0.31250000 </v>
   <v>       0.50000000       0.12500000       0.31250000 </v>
   <v>      -0.43750000       0.12500000       0.31250000 </v>
   <v>      -0.37500000       0.12500000       0.31250000 </v>
   <v>      -0.31250000       0.12500000       0.31250000 </v>
   <v>      -0.25000000       0.12500000       0.31250000 </v>
   <v>      -0.18750000       0.12500000       0.31250000 </v>
   <v>      -0.12500000       0.12500000       0.31250000 </v>
   <v>      -0.06250000       0.12500000       0.31250000 </v>
   <v>       0.00000000       0.18750000       0.31250000 </v>
   <v>       0.06250000       0.18750000       0.31250000 </v>
   <v>       0.12500000       0.18750000       0.31250000 </v>
   <v>       0.18750000       0.18750000       0.31250000 </v>
   <v>       0.25000000       0.18750000       0.31250000 </v>
   <v>       0.31250000       0.18750000       0.31250000 </v>
   <v>       0.37500000       0.18750000       0.31250000 </v>
   <v>       0.43750000       0.18750000       0.31250000 </v>
   <v>       0.50000000       0.18750000       0.31250000 </v>
   <v>      -0.43750000       0.18750000       0.31250000 </v>
   <v>      -0.37500000       0.18750000       0.31250000 </v>
   <v>      -0.31250000       0.18750000       0.31250000 </v>
   <v>      -0.25000000       0.18750000       0.31250000 </v>
   <v>      -0.18750000       0.18750000       0.31250000 </v>
   <v>      -0.12500000       0.18750000       0.31250000 </v>
   <v>      -0.06250000       0.18750000       0.31250000 </v>
   <v>       0.00000000       0.25000000       0.31250000 </v>
   <v>       0.06250000       0.25000000       0.31250000 </v>
   <v>       0.12500000       0.25000000       0.31250000 </v>
[...]
       <r>   12.1250   -0.0000 </r>
       <r>   12.1250   -0.0000 </r>
       <r>   12.1251   -0.0000 </r>
       <r>   12.1251   -0.0000 </r>
      </set>
      <set comment="kpoint 2049">
       <r>    3.9275    1.0000 </r>
       <r>    3.9275    1.0000 </r>
       <r>    3.9275    1.0000 </r>
       <r>    3.9275    1.0000 </r>
       <r>    6.8527    1.0000 </r>
       <r>    6.8528    1.0000 </r>
       <r>    6.8529    1.0000 </r>
       <r>    6.8529    1.0000 </r>
       <r>    7.2321    1.0000 </r>
       <r>    7.2322    1.0000 </r>
       <r>    7.2323    1.0000 </r>
       <r>    7.2323    1.0000 </r>
       <r>    8.6096    1.0000 </r>
       <r>    8.6097    1.0000 </r>
       <r>    8.6097    1.0000 </r>
       <r>    8.6097    1.0000 </r>
       <r>   10.2991    1.0000 </r>
       <r>   10.2991    1.0000 </r>
       <r>   10.2991    1.0000 </r>
       <r>   10.2993    1.0000 </r>
       <r>   11.8811   -0.0000 </r>
       <r>   11.8811   -0.0000 </r>
       <r>   11.8812   -0.0000 </r>
       <r>   11.8812   -0.0000 </r>
      </set>
      <set comment="kpoint 2050">
       <r>    3.7771    1.0000 </r>
       <r>    3.7771    1.0000 </r>
       <r>    3.7771    1.0000 </r>
       <r>    3.7771    1.0000 </r>
       <r>    6.9279    1.0000 </r>
       <r>    6.9280    1.0000 </r>
       <r>    6.9281    1.0000 </r>
       <r>    6.9281    1.0000 </r>
       <r>    7.1021    1.0000 </r>
       <r>    7.1023    1.0000 </r>
       <r>    7.1023    1.0000 </r>
       <r>    7.1024    1.0000 </r>
       <r>    9.2320    1.0000 </r>
       <r>    9.2321    1.0000 </r>
       <r>    9.2321    1.0000 </r>
       <r>    9.2321    1.0000 </r>
       <r>   10.5034    1.0353 </r>
       <r>   10.5034    1.0354 </r>
       <r>   10.5035    1.0354 </r>
       <r>   10.5036    1.0354 </r>
       <r>   11.5297   -0.0000 </r>
       <r>   11.5297   -0.0000 </r>
       <r>   11.5298   -0.0000 </r>
       <r>   11.5298   -0.0000 </r>
      </set>
      <set comment="kpoint 2051">
       <r>    3.6856    1.0000 </r>
       <r>    3.6856    1.0000 </r>
       <r>    3.6856    1.0000 </r>
       <r>    3.6856    1.0000 </r>
       <r>    6.9783    1.0000 </r>
       <r>    6.9785    1.0000 </r>
       <r>    6.9785    1.0000 </r>
       <r>    6.9786    1.0000 </r>
       <r>    7.0228    1.0000 </r>
       <r>    7.0229    1.0000 </r>
       <r>    7.0229    1.0000 </r>
       <r>    7.0230    1.0000 </r>
       <r>    9.8496    1.0000 </r>
       <r>    9.8497    1.0000 </r>
       <r>    9.8497    1.0000 </r>
       <r>    9.8497    1.0000 </r>
       <r>   10.6331    0.4618 </r>
       <r>   10.6331    0.4614 </r>
       <r>   10.6332    0.4613 </r>
       <r>   10.6333    0.4603 </r>
       <r>   11.0761   -0.0000 </r>
       <r>   11.0761   -0.0000 </r>
       <r>   11.0762   -0.0000 </r>
       <r>   11.0762   -0.0000 </r>
      </set>
      <set comment="kpoint 2052">
       <r>    3.6548    1.0000 </r>
       <r>    3.6548    1.0000 </r>
       <r>    3.6548    1.0000 </r>
       <r>    3.6548    1.0000 </r>
       <r>    6.9961    1.0000 </r>
       <r>    6.9961    1.0000 </r>
       <r>    6.9962    1.0000 </r>
       <r>    6.9962    1.0000 </r>
       <r>    6.9962    1.0000 </r>
       <r>    6.9963    1.0000 </r>
       <r>    6.9963    1.0000 </r>
       <r>    6.9963    1.0000 </r>
       <r>   10.3022    1.0000 </r>
       <r>   10.3022    1.0000 </r>
       <r>   10.3022    1.0000 </r>
       <r>   10.3023    1.0000 </r>
       <r>   10.6776    0.1353 </r>
       <r>   10.6776    0.1352 </r>
       <r>   10.6776    0.1352 </r>
       <r>   10.6776    0.1352 </r>
       <r>   10.6776    0.1351 </r>
       <r>   10.6778    0.1342 </r>
       <r>   10.6778    0.1342 </r>
       <r>   10.6778    0.1342 </r>
      </set>
     </set>
    </set>
   </array>
  </eigenvalues>
  <separator name="orbital magnetization" >
   <v name="MAGDIPOLOUT">      0.00000000      0.00000000      0.00000000</v>
  </separator>
  <dos>
   <i name="efermi">     10.62857584 </i>
   <total>
    <array>
     <dimension dim="1">gridpoints</dimension>
     <dimension dim="2">spin</dimension>
     <field>energy</field>
     <field>total</field>
     <field>integrated</field>
     <set>
      <set comment="spin 1">
       <r>    -0.2067     0.0000     0.0000 </r>
       <r>    -0.1441     0.0000     0.0000 </r>
       <r>    -0.0814     0.0000     0.0000 </r>
       <r>    -0.0188    -0.0000    -0.0000 </r>
       <r>     0.0438    -0.0000    -0.0000 </r>
       <r>     0.1065    -0.0000    -0.0000 </r>
       <r>     0.1691    -0.0000    -0.0000 </r>
       <r>     0.2317    -0.0000    -0.0000 </r>
       <r>     0.2944    -0.0000    -0.0000 </r>
       <r>     0.3570    -0.0000    -0.0000 </r>
       <r>     0.4196    -0.0000    -0.0000 </r>
       <r>     0.4823    -0.0000    -0.0000 </r>
       <r>     0.5449    -0.0000    -0.0000 </r>
       <r>     0.6075    -0.0002    -0.0000 </r>
       <r>     0.6702    -0.0012    -0.0001 </r>
       <r>     0.7328    -0.0020    -0.0002 </r>
       <r>     0.7954     0.0091     0.0004 </r>
       <r>     0.8581     0.0454     0.0032 </r>
       <r>     0.9207     0.0788     0.0081 </r>
       <r>     0.9833     0.0940     0.0140 </r>
       <r>     1.0460     0.1445     0.0231 </r>
       <r>     1.1086     0.1694     0.0337 </r>
       <r>     1.1713     0.1236     0.0414 </r>
       <r>     1.2339     0.1581     0.0513 </r>
       <r>     1.2965     0.2332     0.0659 </r>
       <r>     1.3592     0.2203     0.0797 </r>
       <r>     1.4218     0.2110     0.0930 </r>
       <r>     1.4844     0.2560     0.1090 </r>
       <r>     1.5471     0.2027     0.1217 </r>
       <r>     1.6097     0.2032     0.1344 </r>
       <r>     1.6723     0.3259     0.1548 </r>
       <r>     1.7350     0.3451     0.1764 </r>
       <r>     1.7976     0.3482     0.1982 </r>
       <r>     1.8602     0.3112     0.2177 </r>
       <r>     1.9229     0.1878     0.2295 </r>
       <r>     1.9855     0.2593     0.2457 </r>
       <r>     2.0481     0.4469     0.2737 </r>
       <r>     2.1108     0.4632     0.3028 </r>
       <r>     2.1734     0.4224     0.3292 </r>
       <r>     2.2360     0.3650     0.3521 </r>
       <r>     2.2987     0.3209     0.3722 </r>
       <r>     2.3613     0.4257     0.3988 </r>
       <r>     2.4239     0.4829     0.4291 </r>
       <r>     2.4866     0.4383     0.4565 </r>
       <r>     2.5492     0.4286     0.4834 </r>
       <r>     2.6118     0.4420     0.5111 </r>
       <r>     2.6745     0.6015     0.5487 </r>
       <r>     2.7371     0.6789     0.5913 </r>
       <r>     2.7998     0.5380     0.6250 </r>
       <r>     2.8624     0.5244     0.6578 </r>
       <r>     2.9250     0.5121     0.6899 </r>
       <r>     2.9877     0.4252     0.7165 </r>
       <r>     3.0503     0.6155     0.7551 </r>
       <r>     3.1129     0.9255     0.8130 </r>
       <r>     3.1756     0.9735     0.8740 </r>
       <r>     3.2382     0.7239     0.9194 </r>
       <r>     3.3008     0.4922     0.9502 </r>
       <r>     3.3635     0.6757     0.9925 </r>
       <r>     3.4261     1.1007     1.0614 </r>
       <r>     3.4887     1.0829     1.1293 </r>
       <r>     3.5514     0.9674     1.1899 </r>
       <r>     3.6140     1.3538     1.2747 </r>
       <r>     3.6766     1.7675     1.3854 </r>
       <r>     3.7393     1.9987     1.5105 </r>
       <r>     3.8019     2.1685     1.6464 </r>
       <r>     3.8645     2.3529     1.7937 </r>
       <r>     3.9272     2.3496     1.9409 </r>
       <r>     3.9898     2.5941     2.1034 </r>
       <r>     4.0524     3.0581     2.2949 </r>
       <r>     4.1151     2.9783     2.4815 </r>
       <r>     4.1777     3.4462     2.6973 </r>
       <r>     4.2403     4.3190     2.9679 </r>
       <r>     4.3030     4.2721     3.2354 </r>
       <r>     4.3656     3.9745     3.4844 </r>
       <r>     4.4283     4.5783     3.7711 </r>
       <r>     4.4909     5.4477     4.1124 </r>
       <r>     4.5535     5.5857     4.4622 </r>
       <r>     4.6162     5.5607     4.8105 </r>
       <r>     4.6788     6.0031     5.1865 </r>
       <r>     4.7414     6.0406     5.5649 </r>
       <r>     4.8041     5.8419     5.9308 </r>
       <r>     4.8667     6.0368     6.3089 </r>
       <r>     4.9293     5.4474     6.6501 </r>
       <r>     4.9920     5.0184     6.9644 </r>
       <r>     5.0546     5.7093     7.3220 </r>
       <r>     5.1172     5.7855     7.6844 </r>
       <r>     5.1799     4.8714     7.9895 </r>
       <r>     5.2425     4.6555     8.2811 </r>
       <r>     5.3051     5.6148     8.6328 </r>
       <r>     5.3678     5.5635     8.9812 </r>
       <r>     5.4304     4.2149     9.2452 </r>
       <r>     5.4930     3.9346     9.4917 </r>
       <r>     5.5557     4.1374     9.7508 </r>
       <r>     5.6183     3.9422     9.9977 </r>
       <r>     5.6809     3.7117    10.2302 </r>
       <r>     5.7436     3.5049    10.4497 </r>
       <r>     5.8062     4.2243    10.7143 </r>
       <r>     5.8688     5.9670    11.0881 </r>
       <r>     5.9315     5.9947    11.4635 </r>
       <r>     5.9941     5.1238    11.7845 </r>
       <r>     6.0568     5.4366    12.1250 </r>
       <r>     6.1194     5.3839    12.4622 </r>
       <r>     6.1820     5.1537    12.7850 </r>
       <r>     6.2447     5.5873    13.1350 </r>
       <r>     6.3073     6.2797    13.5283 </r>
       <r>     6.3699     6.5257    13.9370 </r>
       <r>     6.4326     5.7610    14.2979 </r>
       <r>     6.4952     5.4220    14.6375 </r>
       <r>     6.5578     6.0818    15.0184 </r>
       <r>     6.6205     6.2025    15.4069 </r>
       <r>     6.6831     6.0596    15.7864 </r>
       <r>     6.7457     6.7342    16.2082 </r>
       <r>     6.8084     6.8417    16.6367 </r>
       <r>     6.8710     6.5125    17.0446 </r>
       <r>     6.9336     7.1850    17.4947 </r>
       <r>     6.9963     7.0948    17.9391 </r>
       <r>     7.0589     6.6770    18.3573 </r>
       <r>     7.1215     8.0103    18.8590 </r>
       <r>     7.1842     8.6822    19.4028 </r>
       <r>     7.2468     8.1516    19.9134 </r>
       <r>     7.3094     8.9180    20.4719 </r>
       <r>     7.3721     9.9075    21.0925 </r>
       <r>     7.4347    10.1784    21.7300 </r>
       <r>     7.4973    10.4103    22.3821 </r>
       <r>     7.5600     8.4371    22.9105 </r>
       <r>     7.6226     6.5444    23.3204 </r>
       <r>     7.6853     6.1808    23.7076 </r>
       <r>     7.7479     5.3435    24.0422 </r>
       <r>     7.8105     4.8717    24.3474 </r>
       <r>     7.8732     5.5927    24.6977 </r>
       <r>     7.9358     5.8366    25.0632 </r>
       <r>     7.9984     5.2557    25.3924 </r>
       <r>     8.0611     4.7011    25.6869 </r>
       <r>     8.1237     4.3404    25.9587 </r>
       <r>     8.1863     4.3340    26.2302 </r>
       <r>     8.2490     4.5096    26.5127 </r>
       <r>     8.3116     4.5432    26.7972 </r>
       <r>     8.3742     4.6438    27.0881 </r>
       <r>     8.4369     5.0951    27.4072 </r>
       <r>     8.4995     5.5723    27.7562 </r>
       <r>     8.5621     6.2305    28.1465 </r>
       <r>     8.6248     6.3599    28.5448 </r>
       <r>     8.6874     6.0613    28.9245 </r>
       <r>     8.7500     6.2064    29.3132 </r>
       <r>     8.8127     6.6237    29.7281 </r>
       <r>     8.8753     6.6605    30.1453 </r>
       <r>     8.9379     5.7752    30.5070 </r>
       <r>     9.0006     5.3067    30.8394 </r>
       <r>     9.0632     6.0520    31.2184 </r>
       <r>     9.1258     6.2933    31.6126 </r>
       <r>     9.1885     5.1730    31.9366 </r>
       <r>     9.2511     4.3326    32.2080 </r>
       <r>     9.3138     4.6028    32.4963 </r>
       <r>     9.3764     4.9248    32.8047 </r>
       <r>     9.4390     5.3180    33.1378 </r>
       <r>     9.5017     5.3261    33.4714 </r>
       <r>     9.5643     4.6102    33.7602 </r>
       <r>     9.6269     4.0311    34.0127 </r>
       <r>     9.6896     3.8089    34.2512 </r>
       <r>     9.7522     4.4845    34.5321 </r>
       <r>     9.8148     5.3412    34.8667 </r>
       <r>     9.8775     5.3981    35.2048 </r>
       <r>     9.9401     5.2468    35.5334 </r>
       <r>    10.0027     4.8810    35.8391 </r>
       <r>    10.0654     4.1277    36.0977 </r>
       <r>    10.1280     3.9747    36.3466 </r>
       <r>    10.1906     5.2045    36.6726 </r>
       <r>    10.2533     6.6192    37.0872 </r>
       <r>    10.3159     6.7734    37.5114 </r>
       <r>    10.3785     6.1823    37.8987 </r>
       <r>    10.4412     6.1518    38.2840 </r>
       <r>    10.5038     7.8259    38.7742 </r>
       <r>    10.5664     9.9704    39.3987 </r>
       <r>    10.6291     9.6712    40.0044 </r>
       <r>    10.6917     7.7699    40.4911 </r>
       <r>    10.7543     6.3111    40.8864 </r>
       <r>    10.8170     5.7541    41.2468 </r>
       <r>    10.8796     5.2014    41.5726 </r>
       <r>    10.9423     4.2562    41.8391 </r>
       <r>    11.0049     4.1393    42.0984 </r>
       <r>    11.0675     3.9190    42.3439 </r>
       <r>    11.1302     2.3829    42.4931 </r>
       <r>    11.1928     0.8267    42.5449 </r>
       <r>    11.2554     0.2076    42.5579 </r>
       <r>    11.3181     0.4255    42.5846 </r>
       <r>    11.3807     0.9111    42.6416 </r>
       <r>    11.4433     1.5814    42.7407 </r>
       <r>    11.5060     2.2968    42.8845 </r>
       <r>    11.5686     1.9386    43.0060 </r>
       <r>    11.6312     1.0051    43.0689 </r>
       <r>    11.6939     0.5847    43.1055 </r>
       <r>    11.7565     0.5423    43.1395 </r>
       <r>    11.8191     0.7232    43.1848 </r>
       <r>    11.8818     0.8405    43.2374 </r>
       <r>    11.9444     1.0697    43.3045 </r>
       <r>    12.0070     1.8190    43.4184 </r>
       <r>    12.0697     2.0627    43.5476 </r>
       <r>    12.1323     1.3163    43.6300 </r>
       <r>    12.1949     0.6777    43.6725 </r>
       <r>    12.2576     0.5877    43.7093 </r>
       <r>    12.3202     0.8380    43.7618 </r>
       <r>    12.3828     1.0207    43.8257 </r>
       <r>    12.4455     1.1687    43.8989 </r>
       <r>    12.5081     1.4282    43.9884 </r>
       <r>    12.5708     1.3437    44.0725 </r>
       <r>    12.6334     1.1953    44.1474 </r>
       <r>    12.6960     1.1133    44.2171 </r>
       <r>    12.7587     0.9329    44.2756 </r>
       <r>    12.8213     0.9702    44.3363 </r>
       <r>    12.8839     1.3729    44.4223 </r>
       <r>    12.9466     1.7481    44.5318 </r>
       <r>    13.0092     1.4287    44.6213 </r>
       <r>    13.0718     0.6528    44.6622 </r>
       <r>    13.1345     0.5359    44.6958 </r>
       <r>    13.1971     0.8426    44.7485 </r>
       <r>    13.2597     0.9048    44.8052 </r>
       <r>    13.3224     0.9969    44.8676 </r>
       <r>    13.3850     1.4449    44.9581 </r>
       <r>    13.4476     1.6622    45.0623 </r>
       <r>    13.5103     1.3615    45.1475 </r>
       <r>    13.5729     1.0491    45.2132 </r>
       <r>    13.6355     0.9228    45.2710 </r>
       <r>    13.6982     0.9097    45.3280 </r>
       <r>    13.7608     1.0477    45.3936 </r>
       <r>    13.8234     1.3430    45.4778 </r>
       <r>    13.8861     1.2114    45.5536 </r>
       <r>    13.9487     0.8373    45.6061 </r>
       <r>    14.0113     0.8699    45.6606 </r>
       <r>    14.0740     0.8849    45.7160 </r>
       <r>    14.1366     0.8306    45.7680 </r>
       <r>    14.1993     1.0635    45.8346 </r>
       <r>    14.2619     1.1575    45.9071 </r>
       <r>    14.3245     1.0582    45.9734 </r>
       <r>    14.3872     1.1845    46.0476 </r>
       <r>    14.4498     1.1927    46.1223 </r>
       <r>    14.5124     0.9953    46.1846 </r>
       <r>    14.5751     0.7741    46.2331 </r>
       <r>    14.6377     0.8729    46.2878 </r>
       <r>    14.7003     1.3183    46.3704 </r>
       <r>    14.7630     1.1937    46.4451 </r>
       <r>    14.8256     0.8262    46.4969 </r>
       <r>    14.8882     0.6679    46.5387 </r>
       <r>    14.9509     0.5828    46.5752 </r>
       <r>    15.0135     0.7563    46.6226 </r>
       <r>    15.0761     1.0502    46.6884 </r>
       <r>    15.1388     1.2894    46.7691 </r>
       <r>    15.2014     1.1362    46.8403 </r>
       <r>    15.2640     0.7344    46.8863 </r>
       <r>    15.3267     0.6928    46.9297 </r>
       <r>    15.3893     0.7209    46.9748 </r>
       <r>    15.4519     0.7543    47.0221 </r>
       <r>    15.5146     1.0156    47.0857 </r>
       <r>    15.5772     1.0136    47.1492 </r>
       <r>    15.6398     0.6973    47.1928 </r>
       <r>    15.7025     0.8290    47.2448 </r>
       <r>    15.7651     1.0023    47.3075 </r>
       <r>    15.8278     0.8633    47.3616 </r>
       <r>    15.8904     0.7016    47.4056 </r>
       <r>    15.9530     0.5699    47.4413 </r>
       <r>    16.0157     0.7460    47.4880 </r>
       <r>    16.0783     0.9804    47.5494 </r>
       <r>    16.1409     0.8450    47.6023 </r>
       <r>    16.2036     0.6458    47.6428 </r>
       <r>    16.2662     0.5925    47.6799 </r>
       <r>    16.3288     0.6163    47.7185 </r>
       <r>    16.3915     0.5756    47.7545 </r>
       <r>    16.4541     0.5379    47.7882 </r>
       <r>    16.5167     0.6508    47.8290 </r>
       <r>    16.5794     0.5914    47.8660 </r>
       <r>    16.6420     0.2214    47.8799 </r>
       <r>    16.7046     0.0306    47.8818 </r>
       <r>    16.7673     0.1771    47.8929 </r>
       <r>    16.8299     0.3797    47.9167 </r>
       <r>    16.8925     0.3557    47.9390 </r>
       <r>    16.9552     0.1601    47.9490 </r>
       <r>    17.0178     0.0428    47.9517 </r>
       <r>    17.0804     0.0827    47.9568 </r>
       <r>    17.1431     0.1199    47.9644 </r>
       <r>    17.2057     0.1344    47.9728 </r>
       <r>    17.2683     0.1843    47.9843 </r>
       <r>    17.3310     0.1114    47.9913 </r>
       <r>    17.3936     0.0066    47.9917 </r>
       <r>    17.4563    -0.0094    47.9911 </r>
       <r>    17.5189     0.0231    47.9926 </r>
       <r>    17.5815     0.0638    47.9966 </r>
       <r>    17.6442     0.0500    47.9997 </r>
       <r>    17.7068     0.0089    48.0003 </r>
       <r>    17.7694    -0.0031    48.0001 </r>
       <r>    17.8321    -0.0011    48.0000 </r>
       <r>    17.8947    -0.0001    48.0000 </r>
       <r>    17.9573    -0.0000    48.0000 </r>
       <r>    18.0200    -0.0000    48.0000 </r>
       <r>    18.0826    -0.0000    48.0000 </r>
       <r>    18.1452    -0.0000    48.0000 </r>
       <r>    18.2079    -0.0000    48.0000 </r>
       <r>    18.2705     0.0000    48.0000 </r>
       <r>    18.3331     0.0000    48.0000 </r>
       <r>    18.3958     0.0000    48.0000 </r>
       <r>    18.4584     0.0000    48.0000 </r>
       <r>    18.5210     0.0000    48.0000 </r>
       <r>    18.5837     0.0000    48.0000 </r>
      </set>
     </set>
    </array>
   </total>
  </dos>
 </calculation>
 <structure name="finalpos" >
  <crystal>
   <varray name="basis" >
    <v>       3.96487464      -0.00000008       0.00000001 </v>
    <v>      -0.00000008       3.96487476       0.00000032 </v>
    <v>       0.00000001       0.00000032       3.96487480 </v>
   </varray>
   <i name="volume">     62.32874931 </i>
   <varray name="rec_basis" >
    <v>       0.25221478       0.00000001      -0.00000000 </v>
    <v>       0.00000001       0.25221478      -0.00000002 </v>
    <v>      -0.00000000      -0.00000002       0.25221477 </v>
   </varray>
  </crystal>
  <varray name="positions" >
   <v>       0.00000000       0.00000001      -0.00000000 </v>
   <v>       0.00000000       0.50000000       0.50000000 </v>
   <v>       0.50000000      -0.00000000       0.50000000 </v>
   <v>       0.50000000       0.50000000       0.00000000 </v>
  </varray>
 </structure>
</modeling>
