Pt                                      
           1
     3.943150    0.000000    0.000000
     0.000000    3.943150    0.000000
     0.000000    0.000000    3.943150
   Pt
   4
Direct configuration=     1
   0.00000000  0.00000000  0.00000000
   0.00000000  0.50000000  0.50000000
   0.50000000  0.00000000  0.50000000
   0.50000000  0.50000000  0.00000000
Pt                                      
           1
     4.020901   -0.000000    0.000000
    -0.000000    4.020901    0.000001
     0.000000    0.000001    4.020901
   Pt
   4
Direct configuration=     2
   0.00000000  0.00000002 -0.00000000
   0.00000001  0.49999999  0.50000000
   0.49999999 -0.00000001  0.50000000
   0.50000000  0.50000000  0.00000000
Pt                                      
           1
     3.964875   -0.000000    0.000000
    -0.000000    3.964875    0.000000
     0.000000    0.000000    3.964875
   Pt
   4
Direct configuration=     3
   0.00000000  0.00000001 -0.00000000
   0.00000000  0.50000000  0.50000000
   0.50000000 -0.00000000  0.50000000
   0.50000000  0.50000000  0.00000000
