
     Program PWSCF v.6.7MaX starts on 12Jun2023 at 18:21:32 

     This program is part of the open-source Quantum ESPRESSO suite
     for quantum simulation of materials; please cite
         "P. Giannozzi et al., J. Phys.:Condens. Matter 21 395502 (2009);
         "P. Giannozzi et al., J. Phys.:Condens. Matter 29 465901 (2017);
          URL http://www.quantum-espresso.org", 
     in publications or presentations arising from this work. More details at
     http://www.quantum-espresso.org/quote

     Parallel version (MPI), running on     6 processors

     MPI processes distributed on     1 nodes
     R & G space division:  proc/nbgrp/npool/nimage =       6
     Waiting for input...
     Reading input from standard input

     Current dimensions of program PWSCF are:
     Max number of different atomic species (ntypx) = 10
     Max number of k-points (npk) =  40000
     Max angular momentum in pseudopotentials (lmaxx) =  3
     file Al.pbe-n-kjpaw_psl.1.0.0.UPF: wavefunction(s)  3S 3P renormalized

     Subspace diagonalization in iterative solution of the eigenvalue problem:
     one sub-group per band group will be used
     scalapack distributed-memory algorithm (size of sub-group:  2*  2 procs)

     Found symmetry operation: I + ( -0.5000  0.0000  0.0000)
     This is a supercell, fractional translations are disabled
     Message from routine setup:
     using ibrav=0 with symmetry is DISCOURAGED, use correct ibrav instead

     Parallelization info
     --------------------
     sticks:   dense  smooth     PW     G-vecs:    dense   smooth      PW
     Min         324     159     47                17440     6143     947
     Max         325     160     48                17445     6152     950
     Sum        1945     955    283               104649    36867    5689



     bravais-lattice index     =            0
     lattice parameter (alat)  =      10.8235  a.u.
     unit-cell volume          =    1663.4652 (a.u.)^3
     number of atoms/cell      =           12
     number of atomic types    =            1
     number of electrons       =        36.00
     number of Kohn-Sham states=           22
     kinetic-energy cutoff     =      30.0000  Ry
     charge density cutoff     =     240.0000  Ry
     scf convergence threshold =      1.0E-04
     mixing beta               =       0.7000
     number of iterations used =            8  plain     mixing
     energy convergence thresh.=      1.0E-04
     force convergence thresh. =      1.0E-01
     Exchange-correlation= SLA  PW   PBX  PBC
                           (   1   4   3   4   0   0   0)
     nstep                     =           50


     celldm(1)=  10.823529  celldm(2)=   0.000000  celldm(3)=   0.000000
     celldm(4)=   0.000000  celldm(5)=   0.000000  celldm(6)=   0.000000

     crystal axes: (cart. coord. in units of alat)
               a(1) = (   1.000000   0.000000   0.000000 )  
               a(2) = (   0.500000   0.866025   0.000000 )  
               a(3) = (   0.000000   0.000000   1.514874 )  

     reciprocal axes: (cart. coord. in units 2 pi/alat)
               b(1) = (  1.000000 -0.577350  0.000000 )  
               b(2) = (  0.000000  1.154701  0.000000 )  
               b(3) = (  0.000000  0.000000  0.660121 )  


     PseudoPot. # 1 for Al read from file:
     /home/mini21k/QE/Potential/Al.pbe-n-kjpaw_psl.1.0.0.UPF
     MD5 check sum: cfc449ca30b5f3223ec38ddd88ac046d
     Pseudo is Projector augmented-wave + core cor, Zval =  3.0
     Generated using "atomic" code by A. Dal Corso  v.5.1
     Shape of augmentation charge: PSQ
     Using radial grid of 1135 points,  6 beta functions with: 
                l(1) =   0
                l(2) =   0
                l(3) =   1
                l(4) =   1
                l(5) =   2
                l(6) =   2
     Q(r) pseudized with 0 coefficients 


     atomic species   valence    mass     pseudopotential
        Al             3.00    26.98154     Al( 1.00)

      6 Sym. Ops. (no inversion) found



   Cartesian axes

     site n.     atom                  positions (alat units)
         1           Al  tau(   1) = (   0.2500000   0.1443376   0.0000000  )
         2           Al  tau(   2) = (   0.7500001   0.1443376   0.0000000  )
         3           Al  tau(   3) = (   0.4999999   0.5773502   0.0000000  )
         4           Al  tau(   4) = (   1.0000000   0.5773502   0.0000000  )
         5           Al  tau(   5) = (   0.0000000   0.2886752   0.4082484  )
         6           Al  tau(   6) = (   0.4999999   0.2886752   0.4082484  )
         7           Al  tau(   7) = (   0.2500000   0.7216878   0.4082484  )
         8           Al  tau(   8) = (   0.7500001   0.7216878   0.4082484  )
         9           Al  tau(   9) = (   0.0000000   0.0000000   0.8164965  )
        10           Al  tau(  10) = (   0.4999999   0.0000000   0.8164965  )
        11           Al  tau(  11) = (   0.2500000   0.4330126   0.8164965  )
        12           Al  tau(  12) = (   0.7500001   0.4330126   0.8164965  )

     number of k points=     3  Gaussian smearing, width (Ry)=  0.0030
                       cart. coord. in units 2pi/alat
        k(    1) = (   0.0000000   0.0000000   0.0000000), wk =   0.2222222
        k(    2) = (   0.0000000   0.3849002   0.0000000), wk =   1.3333333
        k(    3) = (   0.3333333  -0.5773503   0.0000000), wk =   0.4444444

     Dense  grid:   104649 G-vectors     FFT dimensions: (  54,  54,  81)

     Smooth grid:    36867 G-vectors     FFT dimensions: (  40,  40,  60)

     Estimated max dynamical RAM per process >      73.52 MB

     Estimated total dynamical RAM >     441.14 MB

     Initial potential from superposition of free atoms

     starting charge   35.97252, renormalised to   36.00000
     Starting wfcs are   48 randomized atomic wfcs
     Checking if some PAW data can be deallocated... 

     total cpu time spent up to now is        1.0 secs

     Self-consistent Calculation

     iteration #  1     ecut=    30.00 Ry     beta= 0.70
     Davidson diagonalization with overlap
     ethr =  1.00E-02,  avg # of iterations =  3.3

     total cpu time spent up to now is        1.9 secs

     total energy              =    -473.46813155 Ry
     estimated scf accuracy    <       0.51122925 Ry

     iteration #  2     ecut=    30.00 Ry     beta= 0.70
     Davidson diagonalization with overlap
     ethr =  1.42E-03,  avg # of iterations =  5.0

     total cpu time spent up to now is        2.9 secs

     total energy              =    -473.05188120 Ry
     estimated scf accuracy    <       5.25705108 Ry

     iteration #  3     ecut=    30.00 Ry     beta= 0.70
     Davidson diagonalization with overlap
     ethr =  1.42E-03,  avg # of iterations =  4.7

     total cpu time spent up to now is        3.9 secs

     total energy              =    -473.76792095 Ry
     estimated scf accuracy    <       0.04526880 Ry

     iteration #  4     ecut=    30.00 Ry     beta= 0.70
     Davidson diagonalization with overlap
     ethr =  1.26E-04,  avg # of iterations =  3.3

     total cpu time spent up to now is        4.8 secs

     total energy              =    -473.77082544 Ry
     estimated scf accuracy    <       0.02396219 Ry

     iteration #  5     ecut=    30.00 Ry     beta= 0.70
     Davidson diagonalization with overlap
     ethr =  6.66E-05,  avg # of iterations =  2.0

     total cpu time spent up to now is        5.6 secs

     total energy              =    -473.77430129 Ry
     estimated scf accuracy    <       0.00303366 Ry

     iteration #  6     ecut=    30.00 Ry     beta= 0.70
     Davidson diagonalization with overlap
     ethr =  8.43E-06,  avg # of iterations =  3.7

     total cpu time spent up to now is        6.6 secs

     total energy              =    -473.77488233 Ry
     estimated scf accuracy    <       0.00045979 Ry

     iteration #  7     ecut=    30.00 Ry     beta= 0.70
     Davidson diagonalization with overlap
     ethr =  1.28E-06,  avg # of iterations =  8.0

     total cpu time spent up to now is        7.6 secs

     End of self-consistent calculation

          k = 0.0000 0.0000 0.0000 (  4613 PWs)   bands (ev):

    -4.7834  -2.9774  -0.8798   1.0744   1.0745   1.0745   1.1061   1.1061
     1.1068   2.5671   2.5671   2.5677   3.1219   3.1222   3.1222   3.3777
     4.8529   4.8529   4.8530   5.1696   5.1697   5.1703

          k = 0.0000 0.3849 0.0000 (  4612 PWs)   bands (ev):

    -4.1177  -2.3178  -2.1395  -0.3603  -0.2208  -0.1898  -0.1896   1.5592
     1.5594   1.7254   3.3808   3.3809   3.8943   3.8944   3.9972   5.3796
     5.4352   5.4354   5.9139   6.0125   7.0364   7.0365

          k = 0.3333-0.5774 0.0000 (  4638 PWs)   bands (ev):

    -2.7960  -2.7959  -2.7955  -1.0094  -1.0090  -1.0087   1.0832   1.0837
     1.0838   2.9645   2.9648   3.0297   4.1876   4.9647   4.9690   5.2187
     5.2191   5.2192   6.8890   6.8930   7.0298   7.0301

     the Fermi energy is     5.4481 ev

!    total energy              =    -473.77501715 Ry

     total all-electron energy =     -5827.488396 Ry
     estimated scf accuracy    <       0.00004368 Ry
     smearing contrib. (-TS)   =      -0.00211348 Ry
     internal energy E=F+TS    =    -473.77290367 Ry

     The total energy is F=E-TS. E is the sum of the following terms:
     one-electron contribution =      18.78702242 Ry
     hartree contribution      =       6.83678307 Ry
     xc contribution           =     -30.47639052 Ry
     ewald contribution        =     -52.77570487 Ry
     one-center paw contrib.   =    -416.14461377 Ry

     convergence has been achieved in   7 iterations

     Forces acting on atoms (cartesian axes, Ry/au):

     atom    1 type  1   force =    -0.00004566   -0.00002636    0.00944891
     atom    2 type  1   force =     0.00004566   -0.00002636    0.00944891
     atom    3 type  1   force =     0.00000000    0.00005273    0.00944891
     atom    4 type  1   force =     0.00000000    0.00000000    0.00934415
     atom    5 type  1   force =     0.00000000   -0.00004345   -0.00013443
     atom    6 type  1   force =    -0.00000000   -0.00000000   -0.00015149
     atom    7 type  1   force =     0.00003763    0.00002172   -0.00013443
     atom    8 type  1   force =    -0.00003763    0.00002172   -0.00013443
     atom    9 type  1   force =     0.00000000    0.00000000   -0.00923852
     atom   10 type  1   force =     0.00000000   -0.00008739   -0.00929919
     atom   11 type  1   force =    -0.00007568    0.00004370   -0.00929919
     atom   12 type  1   force =     0.00007568    0.00004370   -0.00929919

     Total force =     0.018571     Total SCF correction =     0.007275
     SCF correction compared to forces is large: reduce conv_thr to get better values

     BFGS Geometry Optimization
     Energy error            =      0.0E+00
     Gradient error          =      9.3E-03

     bfgs converged in   1 scf cycles and   0 bfgs steps
     (criteria: energy <  1.0E-04 Ry, force <  1.0E-01 Ry/Bohr)

     End of BFGS Geometry Optimization

     Final energy   =    -473.7750171473 Ry
Begin final coordinates

ATOMIC_POSITIONS (angstrom)
Al            1.4318910000        0.8267030000        0.0000000000    0   0   0
Al            4.2956740000        0.8267030000        0.0000000000    0   0   0
Al            2.8637820000        3.3068110000        0.0000000000    0   0   0
Al            5.7275650000        3.3068110000        0.0000000000    0   0   0
Al            0.0000000000        1.6534060000        2.3382690000
Al            2.8637820000        1.6534060000        2.3382690000
Al            1.4318910000        4.1335140000        2.3382690000
Al            4.2956740000        4.1335140000        2.3382690000
Al            0.0000000000        0.0000000000        4.6765370000
Al            2.8637820000        0.0000000000        4.6765370000
Al            1.4318910000        2.4801080000        4.6765370000
Al            4.2956740000        2.4801080000        4.6765370000
End final coordinates



     Writing output data file ./output/pwscf.save/

     init_run     :      0.89s CPU      0.93s WALL (       1 calls)
     electrons    :      6.35s CPU      6.58s WALL (       1 calls)
     forces       :      0.52s CPU      0.54s WALL (       1 calls)

     Called by init_run:
     wfcinit      :      0.22s CPU      0.22s WALL (       1 calls)
     potinit      :      0.29s CPU      0.32s WALL (       1 calls)
     hinit0       :      0.15s CPU      0.15s WALL (       1 calls)

     Called by electrons:
     c_bands      :      2.44s CPU      2.44s WALL (       7 calls)
     sum_band     :      1.11s CPU      1.18s WALL (       7 calls)
     v_of_rho     :      0.17s CPU      0.18s WALL (       8 calls)
     newd         :      0.99s CPU      1.13s WALL (       8 calls)
     PAW_pot      :      1.96s CPU      2.01s WALL (       8 calls)
     mix_rho      :      0.02s CPU      0.02s WALL (       7 calls)

     Called by c_bands:
     init_us_2    :      0.04s CPU      0.04s WALL (      48 calls)
     cegterg      :      2.28s CPU      2.28s WALL (      21 calls)

     Called by *egterg:
     cdiaghg      :      0.09s CPU      0.09s WALL (     111 calls)
     h_psi        :      1.41s CPU      1.41s WALL (     114 calls)
     s_psi        :      0.36s CPU      0.36s WALL (     114 calls)
     g_psi        :      0.01s CPU      0.01s WALL (      90 calls)

     Called by h_psi:
     h_psi:calbec :      0.52s CPU      0.52s WALL (     114 calls)
     vloc_psi     :      0.51s CPU      0.51s WALL (     114 calls)
     add_vuspsi   :      0.37s CPU      0.37s WALL (     114 calls)

     General routines
     calbec       :      0.75s CPU      0.76s WALL (     147 calls)
     fft          :      0.13s CPU      0.14s WALL (     113 calls)
     ffts         :      0.00s CPU      0.00s WALL (      15 calls)
     fftw         :      0.52s CPU      0.53s WALL (    3524 calls)
     interpolate  :      0.01s CPU      0.01s WALL (       8 calls)

     Parallel routines
     fft_scatt_xy :      0.06s CPU      0.06s WALL (    3652 calls)
     fft_scatt_yz :      0.31s CPU      0.32s WALL (    3652 calls)

     PWSCF        :      7.83s CPU      8.13s WALL


   This run was terminated on:  18:21:40  12Jun2023            

=------------------------------------------------------------------------------=
   JOB DONE.
=------------------------------------------------------------------------------=
