   2   2   0   0
  0.1687500E+04  0.1500000E-08  0.1500000E-08  0.1500000E-08  0.5000000E-15
   1.0000000000000000E-004
  CAR 
 Slab                                    
      1.06364773    -10.86187305  301    -10.27770981      1.00000000
    -10.862  0.0000E+00  0.0000E+00
    -10.822  0.0000E+00  0.0000E+00
    -10.782  0.0000E+00  0.0000E+00
    -10.743 -0.5277E-31 -0.2098E-32
    -10.703 -0.1756E-25 -0.6981E-27
    -10.663 -0.1633E-20 -0.6492E-22
    -10.623 -0.4232E-16 -0.1682E-17
    -10.584 -0.2937E-12 -0.1168E-13
    -10.544 -0.5752E-09 -0.2287E-10
    -10.504 -0.3047E-06 -0.1214E-07
    -10.464 -0.4234E-04 -0.1695E-05
    -10.425 -0.1414E-02 -0.5791E-04
    -10.385 -0.7260E-02 -0.3465E-03
    -10.345  0.4058E-01  0.1267E-02
    -10.305  0.1527E+00  0.7337E-02
    -10.266  0.7499E-01  0.1032E-01
    -10.226 -0.5087E-02  0.1012E-01
    -10.186 -0.2784E-02  0.1001E-01
    -10.146 -0.1278E-03  0.1000E-01
    -10.107 -0.1339E-05  0.1000E-01
    -10.067 -0.3626E-08  0.1000E-01
    -10.027 -0.2640E-11  0.1000E-01
     -9.987 -0.5586E-15  0.1000E-01
     -9.948  0.0000E+00  0.1000E-01
     -9.908  0.0000E+00  0.1000E-01
     -9.868  0.0000E+00  0.1000E-01
     -9.828  0.0000E+00  0.1000E-01
     -9.789  0.0000E+00  0.1000E-01
     -9.749  0.0000E+00  0.1000E-01
     -9.709  0.0000E+00  0.1000E-01
     -9.669  0.0000E+00  0.1000E-01
     -9.630  0.0000E+00  0.1000E-01
     -9.590  0.0000E+00  0.1000E-01
     -9.550  0.0000E+00  0.1000E-01
     -9.510  0.0000E+00  0.1000E-01
     -9.471  0.0000E+00  0.1000E-01
     -9.431  0.0000E+00  0.1000E-01
     -9.391  0.0000E+00  0.1000E-01
     -9.351  0.0000E+00  0.1000E-01
     -9.312  0.0000E+00  0.1000E-01
     -9.272  0.0000E+00  0.1000E-01
     -9.232  0.0000E+00  0.1000E-01
     -9.192  0.0000E+00  0.1000E-01
     -9.153  0.0000E+00  0.1000E-01
     -9.113  0.0000E+00  0.1000E-01
     -9.073  0.0000E+00  0.1000E-01
     -9.033  0.0000E+00  0.1000E-01
     -8.994  0.0000E+00  0.1000E-01
     -8.954  0.0000E+00  0.1000E-01
     -8.914  0.0000E+00  0.1000E-01
     -8.874  0.0000E+00  0.1000E-01
     -8.835  0.0000E+00  0.1000E-01
     -8.795  0.0000E+00  0.1000E-01
     -8.755  0.0000E+00  0.1000E-01
     -8.715  0.0000E+00  0.1000E-01
     -8.676  0.0000E+00  0.1000E-01
     -8.636  0.0000E+00  0.1000E-01
     -8.596  0.0000E+00  0.1000E-01
     -8.556  0.0000E+00  0.1000E-01
     -8.517  0.0000E+00  0.1000E-01
     -8.477  0.0000E+00  0.1000E-01
     -8.437  0.0000E+00  0.1000E-01
     -8.397  0.0000E+00  0.1000E-01
     -8.358  0.0000E+00  0.1000E-01
     -8.318  0.0000E+00  0.1000E-01
     -8.278  0.0000E+00  0.1000E-01
     -8.238  0.0000E+00  0.1000E-01
     -8.199  0.0000E+00  0.1000E-01
     -8.159  0.0000E+00  0.1000E-01
     -8.119  0.0000E+00  0.1000E-01
     -8.079  0.0000E+00  0.1000E-01
     -8.039  0.0000E+00  0.1000E-01
     -8.000  0.0000E+00  0.1000E-01
     -7.960  0.0000E+00  0.1000E-01
     -7.920  0.0000E+00  0.1000E-01
     -7.880  0.0000E+00  0.1000E-01
     -7.841  0.0000E+00  0.1000E-01
     -7.801  0.0000E+00  0.1000E-01
     -7.761  0.0000E+00  0.1000E-01
     -7.721  0.0000E+00  0.1000E-01
     -7.682  0.0000E+00  0.1000E-01
     -7.642  0.0000E+00  0.1000E-01
     -7.602  0.0000E+00  0.1000E-01
     -7.562  0.0000E+00  0.1000E-01
     -7.523  0.0000E+00  0.1000E-01
     -7.483  0.0000E+00  0.1000E-01
     -7.443  0.0000E+00  0.1000E-01
     -7.403  0.0000E+00  0.1000E-01
     -7.364  0.0000E+00  0.1000E-01
     -7.324  0.0000E+00  0.1000E-01
     -7.284  0.0000E+00  0.1000E-01
     -7.244  0.0000E+00  0.1000E-01
     -7.205  0.0000E+00  0.1000E-01
     -7.165  0.0000E+00  0.1000E-01
     -7.125  0.0000E+00  0.1000E-01
     -7.085  0.0000E+00  0.1000E-01
     -7.046  0.0000E+00  0.1000E-01
     -7.006  0.0000E+00  0.1000E-01
     -6.966  0.0000E+00  0.1000E-01
     -6.926  0.0000E+00  0.1000E-01
     -6.887  0.0000E+00  0.1000E-01
     -6.847  0.0000E+00  0.1000E-01
     -6.807  0.0000E+00  0.1000E-01
     -6.767  0.0000E+00  0.1000E-01
     -6.728  0.0000E+00  0.1000E-01
     -6.688  0.0000E+00  0.1000E-01
     -6.648  0.0000E+00  0.1000E-01
     -6.608  0.0000E+00  0.1000E-01
     -6.569  0.0000E+00  0.1000E-01
     -6.529  0.0000E+00  0.1000E-01
     -6.489  0.0000E+00  0.1000E-01
     -6.449  0.0000E+00  0.1000E-01
     -6.410  0.0000E+00  0.1000E-01
     -6.370  0.0000E+00  0.1000E-01
     -6.330  0.0000E+00  0.1000E-01
     -6.290  0.0000E+00  0.1000E-01
     -6.251  0.0000E+00  0.1000E-01
     -6.211  0.0000E+00  0.1000E-01
     -6.171  0.0000E+00  0.1000E-01
     -6.131  0.0000E+00  0.1000E-01
     -6.092  0.0000E+00  0.1000E-01
     -6.052  0.0000E+00  0.1000E-01
     -6.012  0.0000E+00  0.1000E-01
     -5.972  0.0000E+00  0.1000E-01
     -5.933  0.0000E+00  0.1000E-01
     -5.893  0.0000E+00  0.1000E-01
     -5.853  0.0000E+00  0.1000E-01
     -5.813  0.0000E+00  0.1000E-01
     -5.774  0.0000E+00  0.1000E-01
     -5.734  0.0000E+00  0.1000E-01
     -5.694  0.0000E+00  0.1000E-01
     -5.654  0.0000E+00  0.1000E-01
     -5.615  0.0000E+00  0.1000E-01
     -5.575  0.0000E+00  0.1000E-01
     -5.535  0.0000E+00  0.1000E-01
     -5.495  0.0000E+00  0.1000E-01
     -5.456  0.0000E+00  0.1000E-01
     -5.416  0.0000E+00  0.1000E-01
     -5.376  0.0000E+00  0.1000E-01
     -5.336  0.0000E+00  0.1000E-01
     -5.297  0.0000E+00  0.1000E-01
     -5.257  0.0000E+00  0.1000E-01
     -5.217  0.0000E+00  0.1000E-01
     -5.177  0.0000E+00  0.1000E-01
     -5.138  0.0000E+00  0.1000E-01
     -5.098  0.0000E+00  0.1000E-01
     -5.058  0.0000E+00  0.1000E-01
     -5.018  0.0000E+00  0.1000E-01
     -4.979  0.0000E+00  0.1000E-01
     -4.939  0.0000E+00  0.1000E-01
     -4.899  0.0000E+00  0.1000E-01
     -4.859  0.0000E+00  0.1000E-01
     -4.820  0.0000E+00  0.1000E-01
     -4.780  0.0000E+00  0.1000E-01
     -4.740  0.0000E+00  0.1000E-01
     -4.700  0.0000E+00  0.1000E-01
     -4.661  0.0000E+00  0.1000E-01
     -4.621  0.0000E+00  0.1000E-01
     -4.581  0.0000E+00  0.1000E-01
     -4.541  0.0000E+00  0.1000E-01
     -4.502  0.0000E+00  0.1000E-01
     -4.462  0.0000E+00  0.1000E-01
     -4.422  0.0000E+00  0.1000E-01
     -4.382  0.0000E+00  0.1000E-01
     -4.343  0.0000E+00  0.1000E-01
     -4.303  0.0000E+00  0.1000E-01
     -4.263  0.0000E+00  0.1000E-01
     -4.223  0.0000E+00  0.1000E-01
     -4.184  0.0000E+00  0.1000E-01
     -4.144  0.0000E+00  0.1000E-01
     -4.104  0.0000E+00  0.1000E-01
     -4.064  0.0000E+00  0.1000E-01
     -4.025  0.0000E+00  0.1000E-01
     -3.985  0.0000E+00  0.1000E-01
     -3.945  0.0000E+00  0.1000E-01
     -3.905  0.0000E+00  0.1000E-01
     -3.866  0.0000E+00  0.1000E-01
     -3.826  0.0000E+00  0.1000E-01
     -3.786  0.0000E+00  0.1000E-01
     -3.746  0.0000E+00  0.1000E-01
     -3.707  0.0000E+00  0.1000E-01
     -3.667  0.0000E+00  0.1000E-01
     -3.627  0.0000E+00  0.1000E-01
     -3.587  0.0000E+00  0.1000E-01
     -3.548  0.0000E+00  0.1000E-01
     -3.508  0.0000E+00  0.1000E-01
     -3.468  0.0000E+00  0.1000E-01
     -3.428  0.0000E+00  0.1000E-01
     -3.389  0.0000E+00  0.1000E-01
     -3.349  0.0000E+00  0.1000E-01
     -3.309  0.0000E+00  0.1000E-01
     -3.269  0.0000E+00  0.1000E-01
     -3.230  0.0000E+00  0.1000E-01
     -3.190  0.0000E+00  0.1000E-01
     -3.150  0.0000E+00  0.1000E-01
     -3.110  0.0000E+00  0.1000E-01
     -3.071  0.0000E+00  0.1000E-01
     -3.031  0.0000E+00  0.1000E-01
     -2.991  0.0000E+00  0.1000E-01
     -2.951  0.0000E+00  0.1000E-01
     -2.912  0.0000E+00  0.1000E-01
     -2.872  0.0000E+00  0.1000E-01
     -2.832  0.0000E+00  0.1000E-01
     -2.792  0.0000E+00  0.1000E-01
     -2.753  0.0000E+00  0.1000E-01
     -2.713  0.0000E+00  0.1000E-01
     -2.673  0.0000E+00  0.1000E-01
     -2.633  0.0000E+00  0.1000E-01
     -2.594  0.0000E+00  0.1000E-01
     -2.554  0.0000E+00  0.1000E-01
     -2.514  0.0000E+00  0.1000E-01
     -2.474  0.0000E+00  0.1000E-01
     -2.435  0.0000E+00  0.1000E-01
     -2.395  0.0000E+00  0.1000E-01
     -2.355  0.0000E+00  0.1000E-01
     -2.315  0.0000E+00  0.1000E-01
     -2.275  0.0000E+00  0.1000E-01
     -2.236  0.0000E+00  0.1000E-01
     -2.196  0.0000E+00  0.1000E-01
     -2.156  0.0000E+00  0.1000E-01
     -2.116  0.0000E+00  0.1000E-01
     -2.077  0.0000E+00  0.1000E-01
     -2.037  0.0000E+00  0.1000E-01
     -1.997  0.0000E+00  0.1000E-01
     -1.957  0.0000E+00  0.1000E-01
     -1.918  0.0000E+00  0.1000E-01
     -1.878  0.0000E+00  0.1000E-01
     -1.838  0.0000E+00  0.1000E-01
     -1.798  0.0000E+00  0.1000E-01
     -1.759  0.0000E+00  0.1000E-01
     -1.719  0.0000E+00  0.1000E-01
     -1.679  0.0000E+00  0.1000E-01
     -1.639  0.0000E+00  0.1000E-01
     -1.600  0.0000E+00  0.1000E-01
     -1.560  0.0000E+00  0.1000E-01
     -1.520  0.0000E+00  0.1000E-01
     -1.480  0.0000E+00  0.1000E-01
     -1.441  0.0000E+00  0.1000E-01
     -1.401  0.0000E+00  0.1000E-01
     -1.361  0.0000E+00  0.1000E-01
     -1.321  0.0000E+00  0.1000E-01
     -1.282  0.0000E+00  0.1000E-01
     -1.242  0.0000E+00  0.1000E-01
     -1.202  0.0000E+00  0.1000E-01
     -1.162  0.0000E+00  0.1000E-01
     -1.123  0.0000E+00  0.1000E-01
     -1.083  0.0000E+00  0.1000E-01
     -1.043  0.0000E+00  0.1000E-01
     -1.003  0.0000E+00  0.1000E-01
     -0.964  0.0000E+00  0.1000E-01
     -0.924  0.0000E+00  0.1000E-01
     -0.884  0.0000E+00  0.1000E-01
     -0.844  0.0000E+00  0.1000E-01
     -0.805  0.0000E+00  0.1000E-01
     -0.765  0.0000E+00  0.1000E-01
     -0.725  0.0000E+00  0.1000E-01
     -0.685  0.0000E+00  0.1000E-01
     -0.646  0.0000E+00  0.1000E-01
     -0.606  0.0000E+00  0.1000E-01
     -0.566  0.0000E+00  0.1000E-01
     -0.526  0.0000E+00  0.1000E-01
     -0.487 -0.4057E-29  0.1000E-01
     -0.447 -0.8862E-24  0.1000E-01
     -0.407 -0.5405E-19  0.1000E-01
     -0.367 -0.8897E-15  0.1000E-01
     -0.328 -0.4149E-11  0.1000E-01
     -0.288 -0.5286E-08  0.1000E-01
     -0.248 -0.1809E-05  0.1000E-01
     -0.208 -0.1593E-03  0.9994E-02
     -0.169 -0.3156E-02  0.9868E-02
     -0.129 -0.3892E-02  0.9713E-02
     -0.089  0.8287E-01  0.1301E-01
     -0.049  0.1500E+00  0.1897E-01
     -0.010  0.3429E-01  0.2034E-01
      0.030 -0.7196E-02  0.2005E-01
      0.070 -0.1338E-02  0.2000E-01
      0.110 -0.2884E-02  0.1988E-01
      0.149 -0.4888E-02  0.1969E-01
      0.189  0.7645E-01  0.2273E-01
      0.229  0.1523E+00  0.2878E-01
      0.269  0.3938E-01  0.3034E-01
      0.308 -0.7259E-02  0.3006E-01
      0.348 -0.1421E-02  0.3000E-01
      0.388 -0.1675E-02  0.2993E-01
      0.428 -0.1003E-01  0.2953E-01
      0.467  0.3818E-01  0.3105E-01
      0.507  0.2285E+00  0.4014E-01
      0.547  0.2245E+00  0.4906E-01
      0.587  0.3509E-01  0.5046E-01
      0.626 -0.9900E-02  0.5006E-01
      0.666 -0.1531E-02  0.5000E-01
      0.706 -0.4353E-04  0.5000E-01
      0.746 -0.3078E-06  0.5000E-01
      0.785 -0.5773E-09  0.5000E-01
      0.825 -0.2941E-12  0.5000E-01
      0.865 -0.5586E-16  0.5000E-01
      0.905  0.0000E+00  0.5000E-01
      0.944  0.0000E+00  0.5000E-01
      0.984  0.0000E+00  0.5000E-01
      1.024  0.0000E+00  0.5000E-01
      1.064  0.0000E+00  0.5000E-01
