    2    2  200    1
  0.1687500E+04  0.1500000E-08  0.1500000E-08  0.1500000E-08  0.5000000E-15
   1.0000000000000000E-004
  CAR 
 Slab                                    
      2      1      5

  0.1262379E-14  0.1262379E-14  0.1262379E-14  0.1000000E+01
    1      -10.319804   1.000000
    2       -0.076991   0.000000
    3        0.203138   0.000000
    4        0.491732   0.000000
    5        0.521579   0.000000
