       N       E                     dE             d eps       ncg     rms          rms(c)
DAV:   1    -0.871354366672E+00   -0.87135E+00   -0.37420E+02    15   0.137E+02
DAV:   2    -0.724232297199E+01   -0.63710E+01   -0.63710E+01    15   0.402E+01
DAV:   3    -0.729662302753E+01   -0.54300E-01   -0.54300E-01    15   0.575E+00
DAV:   4    -0.729665085274E+01   -0.27825E-04   -0.27824E-04    10   0.132E-01
DAV:   5    -0.729665107934E+01   -0.22660E-06   -0.22626E-06    20   0.125E-02    0.405E+00
DAV:   6    -0.692361570129E+01    0.37304E+00   -0.18668E-01    10   0.195E+00    0.223E+00
DAV:   7    -0.671559404609E+01    0.20802E+00   -0.44722E-01    15   0.306E+00    0.271E-01
DAV:   8    -0.671849694002E+01   -0.29029E-02   -0.44667E-03    10   0.254E-01    0.232E-01
DAV:   9    -0.671563347098E+01    0.28635E-02   -0.38326E-03    15   0.267E-01    0.449E-02
DAV:  10    -0.671715349872E+01   -0.15200E-02   -0.10748E-03    10   0.135E-01    0.177E-02
DAV:  11    -0.671763172380E+01   -0.47823E-03   -0.50695E-05    10   0.345E-02    0.180E-02
DAV:  12    -0.671932084852E+01   -0.16891E-02   -0.45053E-04    15   0.954E-02    0.923E-03
DAV:  13    -0.671961031372E+01   -0.28947E-03   -0.26837E-05    15   0.233E-02    0.904E-03
DAV:  14    -0.671972428213E+01   -0.11397E-03   -0.11533E-05    15   0.141E-02    0.177E-03
DAV:  15    -0.671978164984E+01   -0.57368E-04   -0.14903E-06    15   0.533E-03
   1 F= -.67197816E+01 E0= -.67207480E+01  d E =-.671978E+01
       N       E                     dE             d eps       ncg     rms          rms(c)
DAV:   1    -0.662005017673E+01    0.99674E-01   -0.56931E+00    10   0.178E+01    0.119E+00
DAV:   2    -0.660015134253E+01    0.19899E-01   -0.36717E-02    15   0.142E+00    0.696E-01
DAV:   3    -0.659128347666E+01    0.88679E-02   -0.33392E-02    15   0.810E-01    0.871E-02
DAV:   4    -0.659129224754E+01   -0.87709E-05   -0.34892E-04    10   0.807E-02
   2 F= -.65912922E+01 E0= -.65922586E+01  d E =0.128489E+00
       N       E                     dE             d eps       ncg     rms          rms(c)
DAV:   1    -0.676975203856E+01   -0.17847E+00   -0.24729E+00    10   0.122E+01    0.842E-01
DAV:   2    -0.675940010526E+01    0.10352E-01   -0.15173E-02    10   0.784E-01    0.442E-01
DAV:   3    -0.675638025621E+01    0.30198E-02   -0.10148E-02    15   0.444E-01    0.355E-02
DAV:   4    -0.675659952703E+01   -0.21927E-03   -0.36539E-05    15   0.333E-02    0.134E-02
DAV:   5    -0.675670574058E+01   -0.10621E-03   -0.25446E-05    15   0.247E-02    0.255E-03
DAV:   6    -0.675673568346E+01   -0.29943E-04   -0.45042E-06    15   0.903E-03
   3 F= -.67567357E+01 E0= -.67577020E+01  d E =-.369540E-01
       N       E                     dE             d eps       ncg     rms          rms(c)
DAV:   1    -0.675675264511E+01   -0.46905E-04   -0.22021E-04    15   0.112E-01    0.725E-03
DAV:   2    -0.675675279592E+01   -0.15081E-06   -0.69506E-07    10   0.377E-03    0.393E-03
DAV:   3    -0.675675482769E+01   -0.20318E-05   -0.97420E-07    20   0.424E-03    0.340E-04
DAV:   4    -0.675675584501E+01   -0.10173E-05   -0.17399E-08    10   0.660E-04
   4 F= -.67567558E+01 E0= -.67577222E+01  d E =-.369742E-01
