Slab                                    
           1
    15.000000    0.000000    0.000000
     0.000000   15.000000    0.000000
     0.000000    0.000000   15.000000
   H 
   2
Direct configuration=     1
   0.33333333  0.33333333  0.33333333
   0.38666667  0.33333333  0.33333333
Direct configuration=     2
   0.33793259  0.33333333  0.33333333
   0.38206741  0.33333333  0.33333333
Direct configuration=     3
   0.33499414  0.33333333  0.33333333
   0.38500586  0.33333333  0.33333333
Direct configuration=     4
   0.33496527  0.33333333  0.33333333
   0.38503473  0.33333333  0.33333333
