   4   4   0   0
  0.1551143E+02  0.3958864E-09  0.3958864E-09  0.3958864E-09  0.5000000E-15
   1.0000000000000000E-004
  CAR 
 Slab                                    
     27.59928905     -0.45795458  301     10.76568730      1.00000000
     -0.458  0.0000E+00  0.0000E+00  0.0000E+00  0.0000E+00
     -0.364  0.0000E+00  0.0000E+00  0.0000E+00  0.0000E+00
     -0.271  0.0000E+00  0.0000E+00  0.0000E+00  0.0000E+00
     -0.177  0.0000E+00  0.0000E+00  0.0000E+00  0.0000E+00
     -0.084  0.0000E+00  0.0000E+00  0.0000E+00  0.0000E+00
      0.010  0.0000E+00  0.0000E+00  0.0000E+00  0.0000E+00
      0.103  0.0000E+00  0.0000E+00  0.0000E+00  0.0000E+00
      0.197  0.0000E+00  0.0000E+00  0.0000E+00  0.0000E+00
      0.290  0.0000E+00  0.0000E+00  0.0000E+00  0.0000E+00
      0.384 -0.2108E-32 -0.5459E-36 -0.1972E-33 -0.5106E-37
      0.477 -0.6146E-20 -0.9246E-23 -0.5748E-21 -0.8648E-24
      0.571 -0.1453E-10 -0.1292E-12 -0.1359E-11 -0.1208E-13
      0.664 -0.2622E-04 -0.1435E-05 -0.2452E-05 -0.1342E-06
      0.758 -0.1394E-01 -0.8101E-02 -0.1306E-02 -0.7577E-03
      0.851  0.3913E+00  0.2759E+00  0.3529E-01  0.2505E-01
      0.945  0.1907E-01  0.1306E+00  0.3707E-01  0.3726E-01
      1.038 -0.3646E-03 -0.2391E-02  0.3704E-01  0.3704E-01
      1.132 -0.1522E-08 -0.6696E-07  0.3704E-01  0.3704E-01
      1.225  0.0000E+00 -0.1143E-14  0.3704E-01  0.3704E-01
      1.319  0.0000E+00  0.0000E+00  0.3704E-01  0.3704E-01
      1.413  0.0000E+00  0.0000E+00  0.3704E-01  0.3704E-01
      1.506  0.0000E+00  0.0000E+00  0.3704E-01  0.3704E-01
      1.600  0.0000E+00  0.0000E+00  0.3704E-01  0.3704E-01
      1.693  0.0000E+00  0.0000E+00  0.3704E-01  0.3704E-01
      1.787 -0.1963E-27 -0.5936E-31  0.3704E-01  0.3704E-01
      1.880 -0.6412E-16 -0.1231E-18  0.3704E-01  0.3704E-01
      1.974 -0.1652E-07 -0.2063E-09  0.3704E-01  0.3704E-01
      2.067 -0.2993E-02 -0.2613E-03  0.3676E-01  0.3701E-01
      2.161  0.1819E+00 -0.7729E-01  0.5377E-01  0.2978E-01
      2.254  0.2281E+01  0.2411E+01  0.2671E+00  0.2553E+00
      2.348 -0.8372E-01  0.4402E-01  0.2593E+00  0.2594E+00
      2.441 -0.1051E-03 -0.1433E-02  0.2593E+00  0.2593E+00
      2.535 -0.4435E-10 -0.4172E-08  0.2593E+00  0.2593E+00
      2.628  0.0000E+00  0.0000E+00  0.2593E+00  0.2593E+00
      2.722  0.0000E+00  0.0000E+00  0.2593E+00  0.2593E+00
      2.815  0.0000E+00  0.0000E+00  0.2593E+00  0.2593E+00
      2.909 -0.1378E-26 -0.6841E-31  0.2593E+00  0.2593E+00
      3.002 -0.3345E-15 -0.1603E-18  0.2593E+00  0.2593E+00
      3.096 -0.6377E-07 -0.3038E-09  0.2593E+00  0.2593E+00
      3.189 -0.8412E-02 -0.4368E-03  0.2585E+00  0.2592E+00
      3.283  0.5445E+00 -0.1610E+00  0.3094E+00  0.2442E+00
      3.377  0.4356E+01  0.4783E+01  0.7168E+00  0.6915E+00
      3.470  0.9247E+00  0.3089E-01  0.8033E+00  0.6944E+00
      3.564  0.2166E+01  0.2847E+01  0.1006E+01  0.9606E+00
      3.657 -0.6258E-01  0.4278E+00  0.1000E+01  0.1001E+01
      3.751 -0.3049E-04 -0.6566E-02  0.1000E+01  0.1000E+01
      3.844 -0.3691E-01 -0.3965E-05  0.9965E+00  0.1000E+01
      3.938  0.1038E+01 -0.2354E-01  0.1094E+01  0.9978E+00
      4.031  0.1894E+00  0.8135E+00  0.1111E+01  0.1074E+01
      4.125 -0.6400E-01  0.4037E+00  0.1105E+01  0.1112E+01
      4.218  0.2447E+01  0.8175E-01  0.1334E+01  0.1119E+01
      4.312 -0.2064E+00  0.2371E+01  0.1315E+01  0.1341E+01
      4.405  0.8787E+01 -0.4178E+00  0.2137E+01  0.1302E+01
      4.499  0.2138E+01  0.9649E+01  0.2337E+01  0.2204E+01
      4.592 -0.3557E-01  0.1401E+01  0.2333E+01  0.2335E+01
      4.686 -0.1315E-02 -0.2203E-01  0.2333E+01  0.2333E+01
      4.779 -0.7543E-01 -0.1736E-03  0.2326E+01  0.2333E+01
      4.873  0.4955E+01 -0.1654E+00  0.2790E+01  0.2318E+01
      4.966  0.2303E+01  0.4406E+01  0.3005E+01  0.2730E+01
      5.060  0.1364E+01  0.2762E+01  0.3133E+01  0.2988E+01
      5.153  0.3016E+01  0.4435E+00  0.3415E+01  0.3030E+01
      5.247  0.1271E+02  0.4536E+01  0.4603E+01  0.3454E+01
      5.341  0.1906E+01  0.1156E+02  0.4781E+01  0.4535E+01
      5.434 -0.3658E-01  0.2672E+01  0.4778E+01  0.4785E+01
      5.528 -0.2640E+00 -0.7918E-01  0.4753E+01  0.4778E+01
      5.621  0.7800E+01 -0.1093E+00  0.5483E+01  0.4768E+01
      5.715  0.2000E+01  0.4773E+01  0.5670E+01  0.5214E+01
      5.808 -0.3198E-01  0.4957E+01  0.5667E+01  0.5678E+01
      5.902 -0.8131E-02 -0.1164E+00  0.5666E+01  0.5667E+01
      5.995  0.5247E+00 -0.3990E-02  0.5715E+01  0.5666E+01
      6.089  0.4396E+01  0.1936E+00  0.6126E+01  0.5684E+01
      6.182 -0.3657E+00  0.4729E+01  0.6092E+01  0.6127E+01
      6.276  0.7301E+01 -0.3185E+00  0.6775E+01  0.6097E+01
      6.369 -0.2794E+00  0.5048E+01  0.6749E+01  0.6569E+01
      6.463  0.8339E+01  0.2225E+01  0.7529E+01  0.6777E+01
      6.556  0.9538E+01  0.2735E+01  0.8421E+01  0.7033E+01
      6.650  0.1466E+01  0.1127E+02  0.8558E+01  0.8086E+01
      6.743 -0.2286E-01  0.5149E+01  0.8556E+01  0.8568E+01
      6.837 -0.2858E-06 -0.1330E+00  0.8556E+01  0.8556E+01
      6.930 -0.3794E-02 -0.1187E-04  0.8555E+01  0.8556E+01
      7.024  0.2320E+00 -0.4737E-04  0.8577E+01  0.8556E+01
      7.118  0.1430E+01 -0.4362E-01  0.8711E+01  0.8551E+01
      7.211  0.5398E+01  0.1132E+01  0.9215E+01  0.8657E+01
      7.305  0.5509E+01  0.4816E+01  0.9731E+01  0.9108E+01
      7.398  0.4619E+01  0.4859E+01  0.1016E+02  0.9562E+01
      7.492 -0.2312E+00  0.4640E+01  0.1014E+02  0.9996E+01
      7.585  0.2057E+01  0.1549E+01  0.1033E+02  0.1014E+02
      7.679  0.1015E+02  0.2830E+01  0.1128E+02  0.1041E+02
      7.772  0.1338E+02  0.9390E+01  0.1253E+02  0.1128E+02
      7.866  0.6374E+01  0.3695E+01  0.1313E+02  0.1163E+02
      7.959 -0.2210E+00  0.1627E+02  0.1311E+02  0.1315E+02
      8.053  0.4892E+01 -0.4810E+00  0.1357E+02  0.1311E+02
      8.146 -0.1666E+00  0.2421E+01  0.1355E+02  0.1333E+02
      8.240  0.1371E+01  0.2442E+01  0.1368E+02  0.1356E+02
      8.333  0.5868E+01 -0.1505E+00  0.1423E+02  0.1355E+02
      8.427 -0.6992E-01  0.2958E+01  0.1422E+02  0.1382E+02
      8.520 -0.1541E-02  0.4423E+01  0.1422E+02  0.1424E+02
      8.614 -0.5114E-01 -0.1581E+00  0.1422E+02  0.1422E+02
      8.707  0.1701E+01 -0.8164E-01  0.1438E+02  0.1421E+02
      8.801  0.5722E+00  0.2218E+01  0.1443E+02  0.1442E+02
      8.894  0.4690E+01  0.2405E+00  0.1487E+02  0.1444E+02
      8.988  0.2161E+00  0.1393E+00  0.1489E+02  0.1446E+02
      9.082  0.7028E-01  0.4775E+01  0.1490E+02  0.1490E+02
      9.175  0.6653E+01 -0.1723E+00  0.1552E+02  0.1489E+02
      9.269  0.3544E+01  0.8813E-01  0.1585E+02  0.1490E+02
      9.362  0.3272E+01  0.1001E+02  0.1616E+02  0.1583E+02
      9.456  0.2983E+01  0.4976E-01  0.1643E+02  0.1584E+02
      9.549  0.9023E+00  0.4629E+01  0.1652E+02  0.1627E+02
      9.643  0.1178E+01  0.2090E+01  0.1663E+02  0.1647E+02
      9.736  0.1356E+02  0.3727E+00  0.1790E+02  0.1650E+02
      9.830 -0.1236E+00  0.8163E+01  0.1789E+02  0.1726E+02
      9.923  0.6191E+01  0.6401E+01  0.1846E+02  0.1786E+02
     10.017  0.3493E+00  0.1577E+01  0.1850E+02  0.1801E+02
     10.110  0.4326E+01  0.4742E+01  0.1890E+02  0.1845E+02
     10.204  0.1142E+01  0.2337E+01  0.1901E+02  0.1867E+02
     10.297  0.6059E+01  0.2311E+01  0.1958E+02  0.1889E+02
     10.391 -0.2110E+00  0.2929E+01  0.1956E+02  0.1916E+02
     10.484 -0.1189E-03  0.4328E+01  0.1956E+02  0.1957E+02
     10.578 -0.3760E-01 -0.1181E+00  0.1955E+02  0.1956E+02
     10.671  0.7342E+00 -0.4150E-04  0.1962E+02  0.1956E+02
     10.765  0.8770E+01 -0.3771E-01  0.2044E+02  0.1955E+02
     10.858  0.1245E+01  0.7143E+00  0.2056E+02  0.1962E+02
     10.952 -0.1939E-01  0.9750E+01  0.2056E+02  0.2053E+02
     11.046 -0.2450E+00  0.2730E+00  0.2053E+02  0.2056E+02
     11.139  0.6668E+01 -0.8379E-02  0.2116E+02  0.2056E+02
     11.233  0.7166E+00 -0.1494E+00  0.2122E+02  0.2054E+02
     11.326 -0.1124E-01  0.7363E+01  0.2122E+02  0.2123E+02
     11.420 -0.7698E-07 -0.8182E-01  0.2122E+02  0.2122E+02
     11.513  0.0000E+00 -0.2241E-02  0.2122E+02  0.2122E+02
     11.607  0.0000E+00 -0.3897E-08  0.2122E+02  0.2122E+02
     11.700  0.0000E+00  0.0000E+00  0.2122E+02  0.2122E+02
     11.794  0.0000E+00  0.0000E+00  0.2122E+02  0.2122E+02
     11.887  0.0000E+00  0.0000E+00  0.2122E+02  0.2122E+02
     11.981  0.0000E+00  0.0000E+00  0.2122E+02  0.2122E+02
     12.074 -0.4286E-41  0.0000E+00  0.2122E+02  0.2122E+02
     12.168 -0.9481E-27 -0.2445E-27  0.2122E+02  0.2122E+02
     12.261 -0.1827E-15 -0.6438E-16  0.2122E+02  0.2122E+02
     12.355 -0.2926E-07 -0.1333E-07  0.2122E+02  0.2122E+02
     12.448 -0.4644E-02 -0.1919E-02  0.2122E+02  0.2122E+02
     12.542 -0.4776E-01  0.1230E+00  0.2122E+02  0.2123E+02
     12.635  0.1086E+02  0.9594E+00  0.2223E+02  0.2132E+02
     12.729 -0.1101E+00  0.5664E+01  0.2222E+02  0.2185E+02
     12.822 -0.3349E-02  0.4032E+01  0.2222E+02  0.2223E+02
     12.916 -0.2272E-05 -0.8336E-01  0.2222E+02  0.2222E+02
     13.010 -0.6692E-01 -0.4690E-05  0.2222E+02  0.2222E+02
     13.103  0.3487E+01 -0.4473E-01  0.2254E+02  0.2222E+02
     13.197  0.6259E+01  0.2613E+01  0.2313E+02  0.2246E+02
     13.290 -0.1753E+00  0.7161E+01  0.2311E+02  0.2313E+02
     13.384 -0.2532E-04 -0.2250E+00  0.2311E+02  0.2311E+02
     13.477 -0.1914E-11 -0.5494E-04  0.2311E+02  0.2311E+02
     13.571  0.0000E+00 -0.6494E-11  0.2311E+02  0.2311E+02
     13.664  0.0000E+00  0.0000E+00  0.2311E+02  0.2311E+02
     13.758  0.0000E+00  0.0000E+00  0.2311E+02  0.2311E+02
     13.851  0.0000E+00  0.0000E+00  0.2311E+02  0.2311E+02
     13.945  0.0000E+00  0.0000E+00  0.2311E+02  0.2311E+02
     14.038  0.0000E+00  0.0000E+00  0.2311E+02  0.2311E+02
     14.132  0.0000E+00  0.0000E+00  0.2311E+02  0.2311E+02
     14.225  0.0000E+00  0.0000E+00  0.2311E+02  0.2311E+02
     14.319  0.0000E+00  0.0000E+00  0.2311E+02  0.2311E+02
     14.412  0.0000E+00  0.0000E+00  0.2311E+02  0.2311E+02
     14.506 -0.3372E-31  0.0000E+00  0.2311E+02  0.2311E+02
     14.599 -0.9229E-19 -0.1719E-29  0.2311E+02  0.2311E+02
     14.693 -0.2047E-09 -0.1962E-17  0.2311E+02  0.2311E+02
     14.786 -0.3461E-03 -0.1797E-08  0.2311E+02  0.2311E+02
     14.880 -0.1661E+00 -0.1219E-02  0.2310E+02  0.2311E+02
     14.974  0.4723E+01 -0.8428E-01  0.2354E+02  0.2310E+02
     15.067  0.2000E+00  0.4914E+01  0.2356E+02  0.2356E+02
     15.161 -0.4052E-02 -0.7496E-01  0.2356E+02  0.2356E+02
     15.254 -0.1582E-07 -0.1305E-02  0.2356E+02  0.2356E+02
     15.348  0.0000E+00 -0.2026E-08  0.2356E+02  0.2356E+02
     15.441  0.0000E+00  0.0000E+00  0.2356E+02  0.2356E+02
     15.535  0.0000E+00  0.0000E+00  0.2356E+02  0.2356E+02
     15.628  0.0000E+00  0.0000E+00  0.2356E+02  0.2356E+02
     15.722  0.0000E+00  0.0000E+00  0.2356E+02  0.2356E+02
     15.815  0.0000E+00  0.0000E+00  0.2356E+02  0.2356E+02
     15.909  0.0000E+00  0.0000E+00  0.2356E+02  0.2356E+02
     16.002  0.0000E+00  0.0000E+00  0.2356E+02  0.2356E+02
     16.096  0.0000E+00  0.0000E+00  0.2356E+02  0.2356E+02
     16.189 -0.1209E-31  0.0000E+00  0.2356E+02  0.2356E+02
     16.283 -0.4140E-19 -0.1406E-26  0.2356E+02  0.2356E+02
     16.376 -0.1152E-09 -0.3397E-15  0.2356E+02  0.2356E+02
     16.470 -0.2458E-03 -0.6444E-07  0.2356E+02  0.2356E+02
     16.563 -0.1682E+00 -0.8457E-02  0.2354E+02  0.2355E+02
     16.657  0.4617E+01  0.5477E+00  0.2397E+02  0.2361E+02
     16.750  0.3090E+00  0.4373E+01  0.2400E+02  0.2401E+02
     16.844 -0.9886E-02 -0.1601E+00  0.2400E+02  0.2400E+02
     16.938  0.5908E-01 -0.5929E-02  0.2401E+02  0.2400E+02
     17.031  0.9733E+01  0.1826E+00  0.2492E+02  0.2402E+02
     17.125 -0.2821E+00  0.9639E+01  0.2489E+02  0.2492E+02
     17.218 -0.1349E-02 -0.3103E+00  0.2489E+02  0.2489E+02
     17.312 -0.1280E-08 -0.1032E-02  0.2489E+02  0.2489E+02
     17.405 -0.8912E-39 -0.8068E-09  0.2489E+02  0.2489E+02
     17.499 -0.9119E-25 -0.2449E-38  0.2489E+02  0.2489E+02
     17.592 -0.7769E-14 -0.2052E-24  0.2489E+02  0.2489E+02
     17.686 -0.5461E-06 -0.1427E-13  0.2489E+02  0.2489E+02
     17.779 -0.2403E-01 -0.8201E-06  0.2489E+02  0.2489E+02
     17.873  0.1379E+01 -0.2895E-01  0.2502E+02  0.2489E+02
     17.966  0.3506E+01  0.1578E+01  0.2534E+02  0.2503E+02
     18.060 -0.1081E+00  0.3300E+01  0.2533E+02  0.2534E+02
     18.153 -0.2408E-04 -0.9663E-01  0.2533E+02  0.2533E+02
     18.247 -0.2635E-11 -0.1691E-04  0.2533E+02  0.2533E+02
     18.340  0.0000E+00 -0.1507E-11  0.2533E+02  0.2533E+02
     18.434  0.0000E+00  0.0000E+00  0.2533E+02  0.2533E+02
     18.527  0.0000E+00  0.0000E+00  0.2533E+02  0.2533E+02
     18.621  0.0000E+00  0.0000E+00  0.2533E+02  0.2533E+02
     18.714  0.0000E+00  0.0000E+00  0.2533E+02  0.2533E+02
     18.808 -0.2355E-34  0.0000E+00  0.2533E+02  0.2533E+02
     18.902 -0.2284E-21 -0.9701E-35  0.2533E+02  0.2533E+02
     18.995 -0.1823E-11 -0.1518E-21  0.2533E+02  0.2533E+02
     19.089 -0.1178E-04 -0.1968E-11  0.2533E+02  0.2533E+02
     19.182 -0.5336E-01 -0.2054E-04  0.2533E+02  0.2533E+02
     19.276  0.2210E+01 -0.1138E+00  0.2554E+02  0.2532E+02
     19.369  0.3904E+01  0.3944E+01  0.2590E+02  0.2569E+02
     19.463 -0.1205E+00  0.2153E+01  0.2589E+02  0.2589E+02
     19.556 -0.3081E-04 -0.4313E-01  0.2589E+02  0.2589E+02
     19.650 -0.3887E-11 -0.2142E-05  0.2589E+02  0.2589E+02
     19.743 -0.3019E-33 -0.8336E-13  0.2589E+02  0.2589E+02
     19.837 -0.2288E-20 -0.1778E-31  0.2589E+02  0.2589E+02
     19.930 -0.1420E-10 -0.5599E-19  0.2589E+02  0.2589E+02
     20.024 -0.6887E-04 -0.1431E-09  0.2589E+02  0.2589E+02
     20.117 -0.1429E+00 -0.2798E-03  0.2588E+02  0.2589E+02
     20.211  0.4075E+01 -0.1681E+00  0.2626E+02  0.2587E+02
     20.304  0.8335E+00  0.4659E+01  0.2633E+02  0.2631E+02
     20.398 -0.1296E-01  0.2661E+00  0.2633E+02  0.2633E+02
     20.491 -0.2113E-02 -0.4828E-02  0.2633E+02  0.2633E+02
     20.585  0.1142E-01 -0.1100E+00  0.2633E+02  0.2632E+02
     20.679  0.4878E+01  0.3538E+01  0.2679E+02  0.2665E+02
     20.772 -0.1613E+00  0.1338E+01  0.2678E+02  0.2678E+02
     20.866  0.3269E+01  0.5550E+00  0.2708E+02  0.2683E+02
     20.959 -0.7417E-01  0.2693E+01  0.2707E+02  0.2708E+02
     21.053 -0.9304E-03 -0.9376E-01  0.2707E+02  0.2707E+02
     21.146 -0.3239E+00 -0.1382E-01  0.2704E+02  0.2707E+02
     21.240  0.8821E+01  0.8679E+00  0.2787E+02  0.2715E+02
     21.333  0.1024E+01  0.8981E+01  0.2796E+02  0.2799E+02
     21.427 -0.1590E-01 -0.3306E+00  0.2796E+02  0.2796E+02
     21.520 -0.1143E-06 -0.3477E-03  0.2796E+02  0.2796E+02
     21.614 -0.1132E-28 -0.1294E-09  0.2796E+02  0.2796E+02
     21.707 -0.6884E-17 -0.2142E-19  0.2796E+02  0.2796E+02
     21.801 -0.3333E-08 -0.5607E-10  0.2796E+02  0.2796E+02
     21.894 -0.1167E-02 -0.1124E-03  0.2796E+02  0.2796E+02
     21.988  0.3399E-01 -0.7008E-01  0.2797E+02  0.2796E+02
     22.081  0.2011E+01  0.1936E+01  0.2815E+02  0.2814E+02
     22.175 -0.6393E-01  0.1158E+00  0.2815E+02  0.2815E+02
     22.268 -0.2237E-03 -0.2059E-02  0.2815E+02  0.2815E+02
     22.362 -0.7126E-02 -0.3140E-05  0.2815E+02  0.2815E+02
     22.455  0.4517E+00 -0.5161E-01  0.2819E+02  0.2814E+02
     22.549  0.4472E+01  0.2305E+01  0.2861E+02  0.2836E+02
     22.643 -0.1646E+00  0.2561E+01  0.2859E+02  0.2860E+02
     22.736 -0.1660E-03 -0.6151E-01  0.2859E+02  0.2859E+02
     22.830 -0.5996E-10 -0.4855E-05  0.2859E+02  0.2859E+02
     22.923 -0.1382E-14 -0.2153E-12  0.2859E+02  0.2859E+02
     23.017 -0.2092E-06 -0.9511E-11  0.2859E+02  0.2859E+02
     23.110 -0.2162E-01 -0.6979E-04  0.2859E+02  0.2859E+02
     23.204  0.1407E+01 -0.2411E+00  0.2872E+02  0.2857E+02
     23.297  0.8422E+01  0.7430E+01  0.2951E+02  0.2926E+02
     23.391 -0.3023E+00  0.2355E+01  0.2948E+02  0.2949E+02
     23.484 -0.1822E-03 -0.3909E-01  0.2948E+02  0.2948E+02
     23.578 -0.4475E-10 -0.7031E-06  0.2948E+02  0.2948E+02
     23.671  0.0000E+00 -0.8442E-14  0.2948E+02  0.2948E+02
     23.765  0.0000E+00  0.0000E+00  0.2948E+02  0.2948E+02
     23.858  0.0000E+00  0.0000E+00  0.2948E+02  0.2948E+02
     23.952  0.0000E+00  0.0000E+00  0.2948E+02  0.2948E+02
     24.045  0.0000E+00  0.0000E+00  0.2948E+02  0.2948E+02
     24.139  0.0000E+00  0.0000E+00  0.2948E+02  0.2948E+02
     24.232 -0.4320E-28 -0.1927E-34  0.2948E+02  0.2948E+02
     24.326 -0.2361E-16 -0.2607E-21  0.2948E+02  0.2948E+02
     24.419 -0.1026E-07 -0.2904E-11  0.2948E+02  0.2948E+02
     24.513 -0.3207E-02 -0.2560E-04  0.2948E+02  0.2948E+02
     24.607  0.1212E+00 -0.1102E+00  0.2949E+02  0.2947E+02
     24.700  0.4794E+01  0.3541E+01  0.2994E+02  0.2980E+02
     24.794 -0.1595E+00  0.1345E+01  0.2993E+02  0.2993E+02
     24.887 -0.1040E+00 -0.3123E-01  0.2992E+02  0.2993E+02
     24.981  0.3426E+01  0.5143E+00  0.3024E+02  0.2997E+02
     25.074  0.1456E+01  0.4408E+01  0.3037E+02  0.3039E+02
     25.168 -0.2588E-01 -0.1618E+00  0.3037E+02  0.3037E+02
     25.261 -0.6410E-06 -0.1417E-03  0.3037E+02  0.3037E+02
     25.355 -0.1055E-13 -0.4616E-10  0.3037E+02  0.3037E+02
     25.448 -0.8637E-24 -0.3296E-27  0.3037E+02  0.3037E+02
     25.542 -0.5016E-13 -0.1320E-15  0.3037E+02  0.3037E+02
     25.635 -0.2375E-05 -0.4181E-07  0.3037E+02  0.3037E+02
     25.729 -0.6833E-01 -0.9402E-02  0.3036E+02  0.3037E+02
     25.822  0.3537E+01  0.5146E+00  0.3069E+02  0.3042E+02
     25.916  0.6209E+01  0.9336E+01  0.3128E+02  0.3129E+02
     26.009 -0.1740E+00 -0.3365E+00  0.3126E+02  0.3126E+02
     26.103 -0.3126E-02 -0.8053E-01  0.3126E+02  0.3125E+02
     26.196  0.3165E+01  0.3261E+01  0.3155E+02  0.3156E+02
     26.290  0.3164E+01  0.2130E+00  0.3185E+02  0.3158E+02
     26.383  0.1626E+01  0.4694E+01  0.3200E+02  0.3202E+02
     26.477 -0.3025E-01 -0.1673E+00  0.3200E+02  0.3200E+02
     26.571 -0.9034E-06 -0.3147E-03  0.3200E+02  0.3200E+02
     26.664 -0.1688E-13 -0.1744E-09  0.3200E+02  0.3200E+02
     26.758  0.0000E+00  0.0000E+00  0.3200E+02  0.3200E+02
     26.851  0.0000E+00  0.0000E+00  0.3200E+02  0.3200E+02
     26.945  0.0000E+00  0.0000E+00  0.3200E+02  0.3200E+02
     27.038  0.0000E+00  0.0000E+00  0.3200E+02  0.3200E+02
     27.132  0.0000E+00  0.0000E+00  0.3200E+02  0.3200E+02
     27.225  0.0000E+00  0.0000E+00  0.3200E+02  0.3200E+02
     27.319  0.0000E+00  0.0000E+00  0.3200E+02  0.3200E+02
     27.412  0.0000E+00  0.0000E+00  0.3200E+02  0.3200E+02
     27.506  0.0000E+00  0.0000E+00  0.3200E+02  0.3200E+02
     27.599  0.0000E+00  0.0000E+00  0.3200E+02  0.3200E+02
