    4    4    1    2
  0.1551143E+02  0.3958864E-09  0.3958864E-09  0.3958864E-09  0.5000000E-15
   1.0000000000000000E-004
  CAR 
 Slab                                    
     40      4     32

  0.3742002E-15  0.3742002E-15  0.3742002E-15  0.3703704E-01
    1        0.817375      0.840707   1.000000   1.000000
    2        3.915072      4.021246   1.000000   1.000000
    3        3.915072      4.021246   1.000000   1.000000
    4        3.915072      4.021246   1.000000   1.000000
    5        4.345976      4.456674   1.000000   1.000000
    6        4.345976      4.456674   1.000000   1.000000
    7        4.345976      4.456674   1.000000   1.000000
    8        7.043322      7.181376   1.000000   1.000000
    9        7.043322      7.181376   1.000000   1.000000
   10        7.043322      7.181376   1.000000   1.000000
   11        9.093805      9.268554   1.000000   1.000000
   12        9.093805      9.268554   1.000000   1.000000
   13       10.648282     10.835923   1.002221  -0.031599
   14       10.648282     10.835923   1.002221  -0.031599
   15       10.648282     10.835923   1.002221  -0.031599
   16       11.109458     11.279305  -0.000000  -0.000000
   17       11.109458     11.279305  -0.000000  -0.000000
   18       11.109458     11.279305  -0.000000  -0.000000
   19       11.109458     11.279305  -0.000000  -0.000000
   20       11.109458     11.279305  -0.000000  -0.000000
   21       11.109458     11.279305  -0.000000  -0.000000
   22       12.565312     12.569580   0.000000   0.000000
   23       12.565312     12.569580   0.000000   0.000000
   24       12.565312     12.569580   0.000000   0.000000
   25       19.257566     19.372000   0.000000   0.000000
   26       19.257566     19.372000   0.000000   0.000000
   27       19.257566     19.372001   0.000000   0.000000
   28       22.026600     22.048695   0.000000   0.000000
   29       22.026600     22.048695   0.000000   0.000000
   30       22.026600     22.048695   0.000000   0.000000
   31       22.026600     22.048695   0.000000   0.000000
   32       22.026600     22.048695   0.000000   0.000000

  0.3333333E+00  0.3742002E-15  0.3742002E-15  0.2222222E+00
    1        2.191251      2.215726   1.000000   1.000000
    2        4.175102      4.253740   1.000000   1.000000
    3        4.825765      4.937544   1.000000   1.000000
    4        4.825765      4.937544   1.000000   1.000000
    5        4.911662      5.026844   1.000000   1.000000
    6        5.236651      5.346430   1.000000   1.000000
    7        5.236651      5.346430   1.000000   1.000000
    8        6.237291      6.365324   1.000000   1.000000
    9        7.768690      7.908944   1.000000   1.000000
   10        7.768690      7.908944   1.000000   1.000000
   11        7.799391      7.909371   1.000000   1.000000
   12        7.799391      7.909371   1.000000   1.000000
   13        8.233559      8.393900   1.000000   1.000000
   14        8.695561      8.773173   1.000000   1.000000
   15        9.350475      9.515098   1.000000   1.000000
   16        9.350475      9.515098   1.000000   1.000000
   17        9.449125      9.626494   1.000000   1.000000
   18        9.677780      9.830346   1.000000   1.000000
   19        9.677780      9.830346   1.000000   1.000000
   20       10.223091     10.406811   1.000000   1.000000
   21       11.111824     11.281722  -0.000000  -0.000000
   22       11.111824     11.281722  -0.000000  -0.000000
   23       16.625094     16.683502   0.000000   0.000000
   24       16.625094     16.683502   0.000000   0.000000
   25       17.885970     17.976845   0.000000   0.000000
   26       17.885970     17.976845   0.000000   0.000000
   27       20.626634     20.664878   0.000000   0.000000
   28       20.626634     20.664878   0.000000   0.000000
   29       22.483999     22.550514   0.000000   0.000000
   30       22.483999     22.550514   0.000000   0.000000
   31       24.968458     25.007828   0.000000   0.000000
   32       24.968461     25.007830   0.000000   0.000000

  0.3333333E+00  0.3333333E+00  0.3742002E-15  0.4444444E+00
    1        3.309613      3.339630   1.000000   1.000000
    2        5.072294      5.184995   1.000000   1.000000
    3        5.210866      5.289817   1.000000   1.000000
    4        5.210866      5.289817   1.000000   1.000000
    5        5.602443      5.715186   1.000000   1.000000
    6        5.602443      5.715186   1.000000   1.000000
    7        6.022214      6.123767   1.000000   1.000000
    8        6.233163      6.353968   1.000000   1.000000
    9        6.533447      6.652829   1.000000   1.000000
   10        6.533447      6.652829   1.000000   1.000000
   11        7.145886      7.253140   1.000000   1.000000
   12        7.342939      7.482366   1.000000   1.000000
   13        8.001935      8.146384   1.000000   1.000000
   14        8.288437      8.451805   1.000000   1.000000
   15        8.860210      9.024593   1.000000   1.000000
   16        9.167727      9.324463   1.000000   1.000000
   17        9.167727      9.324463   1.000000   1.000000
   18        9.670098      9.824138   1.000000   1.000000
   19        9.670098      9.824138   1.000000   1.000000
   20       10.042776     10.203125   1.000000   1.000000
   21       10.225359     10.391325   1.000000   1.000000
   22       12.591374     12.723926   0.000000   0.000000
   23       12.591374     12.723926   0.000000   0.000000
   24       14.938686     15.020622   0.000000   0.000000
   25       19.290690     19.357409   0.000000   0.000000
   26       20.189537     20.271419   0.000000   0.000000
   27       21.212383     21.268572   0.000000   0.000000
   28       21.212383     21.268572   0.000000   0.000000
   29       23.227248     23.281158   0.000000   0.000000
   30       23.227248     23.281158   0.000000   0.000000
   31       24.643857     24.686385   0.000000   0.000000
   32       26.280044     26.323960   0.000000   0.000000

  0.3333333E+00  0.3333333E+00  0.3333333E+00  0.2962963E+00
    1        3.479955      3.538861   1.000000   1.000000
    2        4.387994      4.475178   1.000000   1.000000
    3        4.387994      4.475178   1.000000   1.000000
    4        4.387994      4.475178   1.000000   1.000000
    5        6.437296      6.568771   1.000000   1.000000
    6        6.437296      6.568771   1.000000   1.000000
    7        6.437296      6.568771   1.000000   1.000000
    8        7.234203      7.380680   1.000000   1.000000
    9        7.234203      7.380680   1.000000   1.000000
   10        7.570904      7.641273   1.000000   1.000000
   11        7.642771      7.738403   1.000000   1.000000
   12        7.642771      7.738403   1.000000   1.000000
   13        7.642771      7.738403   1.000000   1.000000
   14        7.725115      7.875476   1.000000   1.000000
   15        7.725115      7.875476   1.000000   1.000000
   16        7.725115      7.875476   1.000000   1.000000
   17        9.862449     10.031207   1.000000   1.000000
   18        9.862449     10.031207   1.000000   1.000000
   19       10.739886     10.915213   0.878771  -0.000098
   20       10.739886     10.915213   0.878771  -0.000098
   21       10.739886     10.915213   0.878771  -0.000098
   22       13.111455     13.210760   0.000000   0.000000
   23       13.111455     13.210760   0.000000   0.000000
   24       13.111455     13.210760   0.000000   0.000000
   25       16.978386     17.069460   0.000000   0.000000
   26       16.978386     17.069460   0.000000   0.000000
   27       16.978386     17.069460   0.000000   0.000000
   28       20.816249     20.886331   0.000000   0.000000
   29       25.830427     25.855553   0.000000   0.000000
   30       25.830427     25.855553   0.000000   0.000000
   31       25.830427     25.855553   0.000000   0.000000
   32       26.145316     26.153047   0.000000   0.000000
