       N       E                     dE             d eps       ncg     rms          rms(c)
DAV:   1     0.202526796017E+03    0.20253E+03   -0.17057E+04   520   0.967E+02
DAV:   2    -0.207369742678E+02   -0.22326E+03   -0.21170E+03   592   0.249E+02
DAV:   3    -0.260260548879E+02   -0.52891E+01   -0.52404E+01   600   0.376E+01
DAV:   4    -0.260590117250E+02   -0.32957E-01   -0.32953E-01   568   0.324E+00
DAV:   5    -0.260594067893E+02   -0.39506E-03   -0.39506E-03   616   0.373E-01    0.239E+01
DAV:   6    -0.250995100453E+02    0.95990E+00   -0.20088E+00   560   0.937E+00    0.123E+01
DAV:   7    -0.249670132818E+02    0.13250E+00   -0.41897E-01   560   0.414E+00    0.506E+00
DAV:   8    -0.249524218378E+02    0.14591E-01   -0.10020E-02   552   0.585E-01    0.206E+00
DAV:   9    -0.249444354135E+02    0.79864E-02   -0.75380E-03   576   0.478E-01    0.369E-01
DAV:  10    -0.249439720106E+02    0.46340E-03   -0.99695E-04   488   0.163E-01    0.563E-02
DAV:  11    -0.249439707477E+02    0.12629E-05   -0.16784E-05   288   0.284E-02
   1 F= -.24943971E+02 E0= -.24943344E+02  d E =-.187881E-02  mag=     0.8965
