 vasp.5.4.4.18Apr17-6-g9f103f2a35 (build May  3 2023 23:59:56) complex           
 executed on           IFC91_ompi date 2023.06.11  15:23:23
 running on    8 total cores
 distrk:  each k-point on    8 cores,    1 groups
 distr:  one band on NCORES_PER_BAND=   1 cores,    8 groups


--------------------------------------------------------------------------------------------------------


 INCAR:
 POTCAR:    PAW_PBE Pt 04Feb2005                  

 ----------------------------------------------------------------------------- 
|                                                                             |
|           W    W    AA    RRRRR   N    N  II  N    N   GGGG   !!!           |
|           W    W   A  A   R    R  NN   N  II  NN   N  G    G  !!!           |
|           W    W  A    A  R    R  N N  N  II  N N  N  G       !!!           |
|           W WW W  AAAAAA  RRRRR   N  N N  II  N  N N  G  GGG   !            |
|           WW  WW  A    A  R   R   N   NN  II  N   NN  G    G                |
|           W    W  A    A  R    R  N    N  II  N    N   GGGG   !!!           |
|                                                                             |
|      For optimal performance we recommend to set                            |
|        NCORE= 4 - approx SQRT( number of cores)                             |
|      NCORE specifies how many cores store one orbital (NPAR=cpu/NCORE).     |
|      This setting can  greatly improve the performance of VASP for DFT.     |
|      The default,   NCORE=1            might be grossly inefficient         |
|      on modern multi-core architectures or massively parallel machines.     |
|      Do your own testing !!!!                                               |
|      Unfortunately you need to use the default for GW and RPA calculations. |
|      (for HF NCORE is supported but not extensively tested yet)             |
|                                                                             |
 ----------------------------------------------------------------------------- 

 POTCAR:    PAW_PBE Pt 04Feb2005                  
   SHA256 =  3ed90460adef76debcff1cfb73ee1349b515b1a3db03439735b44de3a8db7dc8 Pt
   COPYR  = (c) Copyright 04Feb2005 Georg Kresse                                
   COPYR  = This file is part of the software VASP. Any use, copying, and all ot
   COPYR  = If you do not have a valid VASP license, you may not use, copy or di
   VRHFIN =Pt: s1d9                                                             
   LEXCH  = PE                                                                  
   EATOM  =   729.1176 eV,   53.5886 Ry                                         
                                                                                
   TITEL  = PAW_PBE Pt 04Feb2005                                                
   LULTRA =        F    use ultrasoft PP ?                                      
   IUNSCR =        1    unscreen: 0-lin 1-nonlin 2-no                           
   RPACOR =    2.330    partial core radius                                     
   POMASS =  195.080; ZVAL   =   10.000    mass and valenz                      
   RCORE  =    2.600    outmost cutoff radius                                   
   RWIGS  =    2.750; RWIGS  =    1.455    wigner-seitz radius (au A)           
   ENMAX  =  230.283; ENMIN  =  172.712 eV                                      
   ICORE  =        3    local potential                                         
   LCOR   =        T    correct aug charges                                     
   LPAW   =        T    paw PP                                                  
   EAUG   =  358.966                                                            
   DEXC   =    0.000                                                            
   RMAX   =    2.658    core radius for proj-oper                               
   RAUG   =    1.300    factor for augmentation sphere                          
   RDEP   =    2.761    radius for radial grids                                 
   RDEPT  =    2.203    core radius for aug-charge                              
                                                                                
   Atomic configuration                                                         
   16 entries                                                                   
     n  l   j            E        occ.                                          
     1  0  0.50    -78401.1885   2.0000                                         
     2  0  0.50    -13770.7750   2.0000                                         
     2  1  1.50    -11931.0468   6.0000                                         
     3  0  0.50     -3234.7234   2.0000                                         
     3  1  1.50     -2699.2216   6.0000                                         
     3  2  2.50     -2119.5714  10.0000                                         
     4  0  0.50      -695.1528   2.0000                                         
     4  1  1.50      -519.6034   6.0000                                         
     4  2  2.50      -306.6786  10.0000                                         
     4  3  3.50       -70.1041  14.0000                                         
     5  0  0.50      -101.7747   2.0000                                         
     5  1  1.50       -55.9873   6.0000                                         
     5  2  2.50        -6.1423   9.0000                                         
     6  0  0.50        -5.6573   1.0000                                         
     6  1  1.50        -6.8029   0.0000                                         
     5  3  2.50        -1.3606   0.0000                                         
   Description                                                                  
     l       E           TYP  RCUT    TYP  RCUT                                 
     2     -6.1423404     23  2.500                                             
     2     -7.5029230     23  2.500                                             
     0     -5.6573207     23  2.500                                             
     0      0.7416693     23  2.500                                             
     1     -2.7211652     23  2.600                                             
     1     20.4087390     23  2.600                                             
     3     -1.3605826     23  2.500                                             
  local pseudopotential read in
  partial core-charges read in
  partial kinetic energy density read in
  atomic valenz-charges read in
  non local Contribution for L=           2  read in
    real space projection operators read in
  non local Contribution for L=           2  read in
    real space projection operators read in
  non local Contribution for L=           0  read in
    real space projection operators read in
  non local Contribution for L=           0  read in
    real space projection operators read in
  non local Contribution for L=           1  read in
    real space projection operators read in
  non local Contribution for L=           1  read in
    real space projection operators read in
    PAW grid and wavefunctions read in

   number of l-projection  operators is LMAX  =           6
   number of lm-projection operators is LMMAX =          18

  PAW_PBE Pt 04Feb2005                  :
 energy of atom  1       EATOM= -729.1176
 kinetic energy error for atom=    0.0056 (will be added to EATOM!!)


 POSCAR: Pt                                      
  positions in direct lattice
  velocities in cartesian coordinates
 exchange correlation table for  LEXCH =        8
   RHO(1)=    0.500       N(1)  =     2000
   RHO(2)=  100.500       N(2)  =     4000

 VTST: version 3.2, (02/03/18)

 CHAIN: initializing optimizer
 
 OPT: Using VASP Dynamics algorithm
 CHAIN: Read ICHAIN            0

 POSCAR: Pt                                      
  positions in direct lattice
  velocities in cartesian coordinates



--------------------------------------------------------------------------------------------------------


 ion  position               nearest neighbor table
   1  0.000  0.000  0.000-   2 2.80   3 2.80   4 2.80   3 2.80   4 2.80   2 2.80   4 2.80   4 2.80
                             2 2.80   3 2.80   3 2.80   2 2.80
   2  0.500  0.500  0.000-   1 2.80   3 2.80   4 2.80   3 2.80   4 2.80   1 2.80   3 2.80   3 2.80
                             1 2.80   4 2.80   4 2.80   1 2.80
   3  0.500  0.000  0.500-   1 2.80   2 2.80   4 2.80   1 2.80   2 2.80   2 2.80   4 2.80   2 2.80
                             1 2.80   4 2.80   1 2.80   4 2.80
   4  0.000  0.500  0.500-   1 2.80   2 2.80   3 2.80   1 2.80   2 2.80   1 2.80   3 2.80   1 2.80
                             2 2.80   3 2.80   2 2.80   3 2.80

  LATTYP: Found a simple cubic cell.
 ALAT       =     3.9588642286
  
  Lattice vectors:
  
 A1 = (   3.9588642286,   0.0000000000,   0.0000000000)
 A2 = (   0.0000000000,   3.9588642286,   0.0000000000)
 A3 = (   0.0000000000,   0.0000000000,   3.9588642286)


Analysis of symmetry for initial positions (statically):
=====================================================================
 Subroutine PRICEL returns following result:
 
  LATTYP: Found a face centered cubic cell.
 ALAT       =     3.9588642286
  
  Lattice vectors:
  
 A1 = (   1.9794321143,   1.9794321143,  -0.0000000000)
 A2 = (   1.9794321143,  -0.0000000000,  -1.9794321143)
 A3 = (   0.0000000000,   1.9794321143,  -1.9794321143)
 
   4 primitive cells build up your supercell.
 

 Routine SETGRP: Setting up the symmetry group for a 
 simple cubic supercell.


 Subroutine GETGRP returns: Found 48 space group operations
 (whereof 48 operations were pure point group operations)
 out of a pool of 48 trial point group operations.


The static configuration has the point symmetry O_h .


Analysis of symmetry for dynamics (positions and initial velocities):
=====================================================================
 Subroutine PRICEL returns following result:
 
  LATTYP: Found a face centered cubic cell.
 ALAT       =     3.9588642286
  
  Lattice vectors:
  
 A1 = (   1.9794321143,   1.9794321143,  -0.0000000000)
 A2 = (   1.9794321143,  -0.0000000000,  -1.9794321143)
 A3 = (   0.0000000000,   1.9794321143,  -1.9794321143)
 
   4 primitive cells build up your supercell.
 

 Routine SETGRP: Setting up the symmetry group for a 
 simple cubic supercell.


 Subroutine GETGRP returns: Found 48 space group operations
 (whereof 48 operations were pure point group operations)
 out of a pool of 48 trial point group operations.


The dynamic configuration has the point symmetry O_h .


Analysis of constrained symmetry for selective dynamics:
=====================================================================
 Subroutine PRICEL returns following result:
 
  LATTYP: Found a face centered cubic cell.
 ALAT       =     3.9588642286
  
  Lattice vectors:
  
 A1 = (   1.9794321143,   1.9794321143,  -0.0000000000)
 A2 = (   1.9794321143,  -0.0000000000,  -1.9794321143)
 A3 = (   0.0000000000,   1.9794321143,  -1.9794321143)
 
   4 primitive cells build up your supercell.
 

 Routine SETGRP: Setting up the symmetry group for a 
 simple cubic supercell.


 Subroutine GETGRP returns: Found 48 space group operations
 (whereof 48 operations were pure point group operations)
 out of a pool of 48 trial point group operations.


The constrained configuration has the point symmetry O_h .


Analysis of structural, dynamic, and magnetic symmetry:
=====================================================================
 Subroutine PRICEL returns following result:
 
  LATTYP: Found a face centered cubic cell.
 ALAT       =     3.9588642286
  
  Lattice vectors:
  
 A1 = (   1.9794321143,   1.9794321143,  -0.0000000000)
 A2 = (   1.9794321143,  -0.0000000000,  -1.9794321143)
 A3 = (   0.0000000000,   1.9794321143,  -1.9794321143)
 
   4 primitive cells build up your supercell.
 

 Routine SETGRP: Setting up the symmetry group for a 
 simple cubic supercell.


 Subroutine GETGRP returns: Found 48 space group operations
 (whereof 48 operations were pure point group operations)
 out of a pool of 48 trial point group operations.


The magnetic configuration has the point symmetry O_h .


 Subroutine INISYM returns: Found 48 space group operations
 (whereof 48 operations are pure point group operations),
 and found     4 'primitive' translations



 KPOINTS: Pt                                      

Automatic generation of k-mesh.
Space group operators:
 irot       det(A)        alpha          n_x          n_y          n_z        tau_x        tau_y        tau_z
    1     1.000000     0.000000     1.000000     0.000000     0.000000     0.000000     0.000000    -0.000000
    2    -1.000000     0.000000     1.000000     0.000000     0.000000     0.000000     0.000000    -0.000000
    3     1.000000   120.000000    -0.577350    -0.577350    -0.577350     0.000000     0.000000    -0.000000
    4    -1.000000   120.000000    -0.577350    -0.577350    -0.577350     0.000000     0.000000    -0.000000
    5     1.000000   120.000000     0.577350     0.577350     0.577350     0.000000     0.000000    -0.000000
    6    -1.000000   120.000000     0.577350     0.577350     0.577350     0.000000     0.000000    -0.000000
    7     1.000000    90.000000     0.000000     0.000000    -1.000000     0.000000     0.000000    -0.000000
    8    -1.000000    90.000000     0.000000     0.000000    -1.000000     0.000000     0.000000    -0.000000
    9     1.000000   180.000000     0.000000     0.707107     0.707107     0.000000     0.000000    -0.000000
   10    -1.000000   180.000000     0.000000     0.707107     0.707107     0.000000     0.000000    -0.000000
   11     1.000000    90.000000     0.000000     1.000000     0.000000     0.000000     0.000000    -0.000000
   12    -1.000000    90.000000     0.000000     1.000000     0.000000     0.000000     0.000000    -0.000000
   13     1.000000   180.000000     0.000000     0.000000     1.000000     0.000000     0.000000    -0.000000
   14    -1.000000   180.000000     0.000000     0.000000     1.000000     0.000000     0.000000    -0.000000
   15     1.000000   120.000000    -0.577350     0.577350     0.577350     0.000000     0.000000    -0.000000
   16    -1.000000   120.000000    -0.577350     0.577350     0.577350     0.000000     0.000000    -0.000000
   17     1.000000   120.000000    -0.577350     0.577350    -0.577350     0.000000     0.000000    -0.000000
   18    -1.000000   120.000000    -0.577350     0.577350    -0.577350     0.000000     0.000000    -0.000000
   19     1.000000    90.000000     0.000000     0.000000     1.000000     0.000000     0.000000    -0.000000
   20    -1.000000    90.000000     0.000000     0.000000     1.000000     0.000000     0.000000    -0.000000
   21     1.000000    90.000000    -1.000000     0.000000     0.000000     0.000000     0.000000    -0.000000
   22    -1.000000    90.000000    -1.000000     0.000000     0.000000     0.000000     0.000000    -0.000000
   23     1.000000   180.000000     0.707107     0.000000     0.707107     0.000000     0.000000    -0.000000
   24    -1.000000   180.000000     0.707107     0.000000     0.707107     0.000000     0.000000    -0.000000
   25     1.000000   120.000000     0.577350    -0.577350     0.577350     0.000000     0.000000    -0.000000
   26    -1.000000   120.000000     0.577350    -0.577350     0.577350     0.000000     0.000000    -0.000000
   27     1.000000   120.000000    -0.577350    -0.577350     0.577350     0.000000     0.000000    -0.000000
   28    -1.000000   120.000000    -0.577350    -0.577350     0.577350     0.000000     0.000000    -0.000000
   29     1.000000   180.000000     1.000000     0.000000     0.000000     0.000000     0.000000    -0.000000
   30    -1.000000   180.000000     1.000000     0.000000     0.000000     0.000000     0.000000    -0.000000
   31     1.000000    90.000000     0.000000    -1.000000     0.000000     0.000000     0.000000    -0.000000
   32    -1.000000    90.000000     0.000000    -1.000000     0.000000     0.000000     0.000000    -0.000000
   33     1.000000   180.000000     0.707107     0.707107     0.000000     0.000000     0.000000    -0.000000
   34    -1.000000   180.000000     0.707107     0.707107     0.000000     0.000000     0.000000    -0.000000
   35     1.000000    90.000000     1.000000     0.000000     0.000000     0.000000     0.000000    -0.000000
   36    -1.000000    90.000000     1.000000     0.000000     0.000000     0.000000     0.000000    -0.000000
   37     1.000000   120.000000     0.577350    -0.577350    -0.577350     0.000000     0.000000    -0.000000
   38    -1.000000   120.000000     0.577350    -0.577350    -0.577350     0.000000     0.000000    -0.000000
   39     1.000000   180.000000     0.000000     1.000000     0.000000     0.000000     0.000000    -0.000000
   40    -1.000000   180.000000     0.000000     1.000000     0.000000     0.000000     0.000000    -0.000000
   41     1.000000   120.000000     0.577350     0.577350    -0.577350     0.000000     0.000000    -0.000000
   42    -1.000000   120.000000     0.577350     0.577350    -0.577350     0.000000     0.000000    -0.000000
   43     1.000000   180.000000     0.000000    -0.707107     0.707107     0.000000     0.000000    -0.000000
   44    -1.000000   180.000000     0.000000    -0.707107     0.707107     0.000000     0.000000    -0.000000
   45     1.000000   180.000000     0.707107    -0.707107     0.000000     0.000000     0.000000    -0.000000
   46    -1.000000   180.000000     0.707107    -0.707107     0.000000     0.000000     0.000000    -0.000000
   47     1.000000   180.000000     0.707107     0.000000    -0.707107     0.000000     0.000000    -0.000000
   48    -1.000000   180.000000     0.707107     0.000000    -0.707107     0.000000     0.000000    -0.000000
 
 Subroutine IBZKPT returns following result:
 ===========================================
 
 Found      4 irreducible k-points:
 
 Following reciprocal coordinates:
            Coordinates               Weight
  0.000000  0.000000  0.000000      1.000000
  0.333333  0.000000  0.000000      6.000000
  0.333333  0.333333  0.000000     12.000000
  0.333333  0.333333  0.333333      8.000000
 
 Following cartesian coordinates:
            Coordinates               Weight
  0.000000  0.000000  0.000000      1.000000
  0.084199  0.000000  0.000000      6.000000
  0.084199  0.084199  0.000000     12.000000
  0.084199  0.084199  0.084199      8.000000
 


--------------------------------------------------------------------------------------------------------




 Dimension of arrays:
   k-points           NKPTS =      4   k-points in BZ     NKDIM =      4   number of bands    NBANDS=     32
   number of dos      NEDOS =    301   number of ions     NIONS =      4
   non local maximal  LDIM  =      6   non local SUM 2l+1 LMDIM =     18
   total plane-waves  NPLWV =  21952
   max r-space proj   IRMAX =      1   max aug-charges    IRDMAX=   4197
   dimension x,y,z NGX =    28 NGY =   28 NGZ =   28
   dimension x,y,z NGXF=    32 NGYF=   32 NGZF=   32
   support grid    NGXF=    32 NGYF=   32 NGZF=   32
   ions per type =               4
   NGX,Y,Z   is equivalent  to a cutoff of  11.76, 11.76, 11.76 a.u.
   NGXF,Y,Z  is equivalent  to a cutoff of  13.44, 13.44, 13.44 a.u.

 SYSTEM =  Slab                                    
 POSCAR =  Pt                                      

 Startparameter for this run:
   NWRITE =      2    write-flag & timer
   PREC   = high      normal or accurate (medium, high low for compatibility)
   ISTART =      0    job   : 0-new  1-cont  2-samecut
   ICHARG =      2    charge: 1-file 2-atom 10-const
   ISPIN  =      2    spin polarized calculation?
   LNONCOLLINEAR =      F non collinear calculations
   LSORBIT =      F    spin-orbit coupling
   INIWAV =      1    electr: 0-lowe 1-rand  2-diag
   LASPH  =      F    aspherical Exc in radial PAW
   METAGGA=      F    non-selfconsistent MetaGGA calc.

 Electronic Relaxation 1
   ENCUT  =  400.0 eV  29.40 Ry    5.42 a.u.   6.46  6.46  6.46*2*pi/ulx,y,z
   ENINI  =  400.0     initial cutoff
   ENAUG  =  359.0 eV  augmentation charge cutoff
   NELM   =    100;   NELMIN=  4; NELMDL= -5     # of ELM steps 
   EDIFF  = 0.1E-03   stopping-criterion for ELM
   LREAL  =      F    real-space projection
   NLSPLINE    = F    spline interpolate recip. space projectors
   LCOMPAT=      F    compatible to vasp.4.4
   GGA_COMPAT  = T    GGA compatible to vasp.4.4-vasp.4.6
   LMAXPAW     = -100 max onsite density
   LMAXMIX     =    2 max onsite mixed and CHGCAR
   VOSKOWN=      0    Vosko Wilk Nusair interpolation
   ROPT   =    0.00000
 Ionic relaxation
   EDIFFG = -.5E-01   stopping-criterion for IOM
   NSW    =      0    number of steps for IOM
   NBLOCK =      1;   KBLOCK =      1    inner block; outer block 
   IBRION =     -1    ionic relax: 0-MD 1-quasi-New 2-CG
   NFREE  =      0    steps in history (QN), initial steepest desc. (CG)
   ISIF   =      2    stress and relaxation
   IWAVPR =     10    prediction:  0-non 1-charg 2-wave 3-comb
   ISYM   =      2    0-nonsym 1-usesym 2-fastsym
   LCORR  =      T    Harris-Foulkes like correction to forces

   POTIM  = 0.5000    time-step for ionic-motion
   TEIN   =    0.0    initial temperature
   TEBEG  =    0.0;   TEEND  =   0.0 temperature during run
   SMASS  =  -3.00    Nose mass-parameter (am)
   estimated Nose-frequenzy (Omega)   =  0.10E-29 period in steps =****** mass=  -0.358E-27a.u.
   SCALEE = 1.0000    scale energy and forces
   NPACO  =    256;   APACO  = 16.0  distance and # of slots for P.C.
   PSTRESS=    0.0 pullay stress

  Mass of Ions in am
   POMASS = 195.08
  Ionic Valenz
   ZVAL   =  10.00
  Atomic Wigner-Seitz radii
   RWIGS  =  -1.00
  virtual crystal weights 
   VCA    =   1.00
   NELECT =      40.0000    total number of electrons
   NUPDOWN=      -1.0000    fix difference up-down

 DOS related values:
   EMIN   =  10.00;   EMAX   =-10.00  energy-range for DOS
   EFERMI =   0.00
   ISMEAR =     1;   SIGMA  =   0.05  broadening in eV -4-tet -1-fermi 0-gaus

 Electronic relaxation 2 (details)
   IALGO  =     38    algorithm
   LDIAG  =      T    sub-space diagonalisation (order eigenvalues)
   LSUBROT=      F    optimize rotation matrix (better conditioning)
   TURBO    =      0    0=normal 1=particle mesh
   IRESTART =      0    0=no restart 2=restart with 2 vectors
   NREBOOT  =      0    no. of reboots
   NMIN     =      0    reboot dimension
   EREF     =   0.00    reference energy to select bands
   IMIX   =      4    mixing-type and parameters
     AMIX     =   0.40;   BMIX     =  1.00
     AMIX_MAG =   1.60;   BMIX_MAG =  1.00
     AMIN     =   0.10
     WC   =   100.;   INIMIX=   1;  MIXPRE=   1;  MAXMIX= -45

 Intra band minimization:
   WEIMIN = 0.0000     energy-eigenvalue tresh-hold
   EBREAK =  0.78E-06  absolut break condition
   DEPER  =   0.30     relativ break condition  

   TIME   =   0.40     timestep for ELM

  volume/ion in A,a.u.               =      15.51       104.68
  Fermi-wavevector in a.u.,A,eV,Ry     =   1.414244  2.672533 27.212808  2.000085
  Thomas-Fermi vector in A             =   2.535806

 Write flags
   LWAVE        =      T    write WAVECAR
   LDOWNSAMPLE  =      F    k-point downsampling of WAVECAR
   LCHARG       =      T    write CHGCAR
   LVTOT        =      F    write LOCPOT, total local potential
   LVHAR        =      F    write LOCPOT, Hartree potential only
   LELF         =      F    write electronic localiz. function (ELF)
   LORBIT       =      0    0 simple, 1 ext, 2 COOP (PROOUT), +10 PAW based schemes


 Dipole corrections
   LMONO  =      F    monopole corrections only (constant potential shift)
   LDIPOL =      F    correct potential (dipole corrections)
   IDIPOL =      0    1-x, 2-y, 3-z, 4-all directions 
   EPSILON=  1.0000000 bulk dielectric constant

 Exchange correlation treatment:
   GGA     =    --    GGA type
   LEXCH   =     8    internal setting for exchange type
   VOSKOWN=      0    Vosko Wilk Nusair interpolation
   LHFCALC =     F    Hartree Fock is set to
   LHFONE  =     F    Hartree Fock one center treatment
   AEXX    =    0.0000 exact exchange contribution

 Linear response parameters
   LEPSILON=     F    determine dielectric tensor
   LRPA    =     F    only Hartree local field effects (RPA)
   LNABLA  =     F    use nabla operator in PAW spheres
   LVEL    =     F    velocity operator in full k-point grid
   LINTERFAST=   F  fast interpolation
   KINTER  =     0    interpolate to denser k-point grid
   CSHIFT  =0.1000    complex shift for real part using Kramers Kronig
   OMEGAMAX=  -1.0    maximum frequency
   DEG_THRESHOLD= 0.2000000E-02 threshold for treating states as degnerate
   RTIME   =   -0.100 relaxation time in fs
  (WPLASMAI=    0.000 imaginary part of plasma frequency in eV, 0.658/RTIME)
   DFIELD  = 0.0000000 0.0000000 0.0000000 field for delta impulse in time

 Orbital magnetization related:
   ORBITALMAG=     F  switch on orbital magnetization
   LCHIMAG   =     F  perturbation theory with respect to B field
   DQ        =  0.001000  dq finite difference perturbation B field
   LLRAUG    =     F  two centre corrections for induced B field



--------------------------------------------------------------------------------------------------------


 Static calculation
 charge density and potential will be updated during run
 spin polarized calculation
 Variant of blocked Davidson
 Davidson routine will perform the subspace rotation
 perform sub-space diagonalisation
    after iterative eigenvector-optimisation
 modified Broyden-mixing scheme, WC =      100.0
 initial mixing is a Kerker type mixing with AMIX =  0.4000 and BMIX =      1.0000
 Hartree-type preconditioning will be used
 using additional bands           12
 reciprocal scheme for non local part
 use partial core corrections
 calculate Harris-corrections to forces   (improved forces if not selfconsistent)
 use gradient corrections 
 use of overlap-Matrix (Vanderbilt PP)
 Methfessel and Paxton  Order N= 1 SIGMA  =   0.05


--------------------------------------------------------------------------------------------------------


  energy-cutoff  :      400.00
  volume of cell :       62.05
      direct lattice vectors                 reciprocal lattice vectors
     3.958864229  0.000000000  0.000000000     0.252597700  0.000000000  0.000000000
     0.000000000  3.958864229  0.000000000     0.000000000  0.252597700  0.000000000
     0.000000000  0.000000000  3.958864229     0.000000000  0.000000000  0.252597700

  length of vectors
     3.958864229  3.958864229  3.958864229     0.252597700  0.252597700  0.252597700



 k-points in units of 2pi/SCALE and weight: Pt                                      
   0.00000000  0.00000000  0.00000000       0.037
   0.08419923  0.00000000  0.00000000       0.222
   0.08419923  0.08419923  0.00000000       0.444
   0.08419923  0.08419923  0.08419923       0.296

 k-points in reciprocal lattice and weights: Pt                                      
   0.00000000  0.00000000  0.00000000       0.037
   0.33333333  0.00000000  0.00000000       0.222
   0.33333333  0.33333333  0.00000000       0.444
   0.33333333  0.33333333  0.33333333       0.296

 position of ions in fractional coordinates (direct lattice) 
   0.00000000  0.00000000  0.00000000
   0.50000000  0.50000000  0.00000000
   0.50000000  0.00000000  0.50000000
   0.00000000  0.50000000  0.50000000

 position of ions in cartesian coordinates  (Angst):
   0.00000000  0.00000000  0.00000000
   1.97943211  1.97943211  0.00000000
   1.97943211  0.00000000  1.97943211
   0.00000000  1.97943211  1.97943211



--------------------------------------------------------------------------------------------------------


 k-point  1 :   0.0000 0.0000 0.0000  plane waves:    1141
 k-point  2 :   0.3333 0.0000 0.0000  plane waves:    1133
 k-point  3 :   0.3333 0.3333 0.0000  plane waves:    1139
 k-point  4 :   0.3333 0.3333 0.3333  plane waves:    1118

 maximum and minimum number of plane-waves per node :      1141     1118

 maximum number of plane-waves:      1141
 maximum index in each direction: 
   IXMAX=    6   IYMAX=    6   IZMAX=    6
   IXMIN=   -6   IYMIN=   -6   IZMIN=   -6


 serial   3D FFT for wavefunctions
 parallel 3D FFT for charge:
    minimum data exchange during FFTs selected (reduces bandwidth)


 total amount of memory used by VASP MPI-rank0    33834. kBytes
=======================================================================

   base      :      30000. kBytes
   nonl-proj :        732. kBytes
   fftplans  :        266. kBytes
   grid      :       2090. kBytes
   one-center:        124. kBytes
   wavefun   :        622. kBytes

     INWAV:  cpu time    0.0000: real time    0.0000
 Broyden mixing: mesh for mixing (old mesh)
   NGX = 13   NGY = 13   NGZ = 13
  (NGX  = 32   NGY  = 32   NGZ  = 32)
  gives a total of   2197 points

 initial charge density was supplied:
 charge density of overlapping atoms calculated
 number of electron      40.0000000 magnetization       4.0000000
 keeping initial charge density in first step


--------------------------------------------------------------------------------------------------------


 Maximum index for augmentation-charges          487 (set IRDMAX)


--------------------------------------------------------------------------------------------------------


 First call to EWALD:  gamma=   0.448
 Maximum number of real-space cells 3x 3x 3
 Maximum number of reciprocal cells 3x 3x 3

    FEWALD:  cpu time    0.0008: real time    0.0008


--------------------------------------- Iteration      1(   1)  ---------------------------------------


    POTLOK:  cpu time    0.0127: real time    0.0143
    SETDIJ:  cpu time    0.0067: real time    0.0067
     EDDAV:  cpu time  157.3438: real time   68.3497
       DOS:  cpu time    0.0004: real time    0.0004
    --------------------------------------------
      LOOP:  cpu time  157.3636: real time   68.3711

 eigenvalue-minimisations  :   520
 total energy-change (2. order) : 0.2025268E+03  (-0.1705741E+04)
 number of electron      40.0000000 magnetization       4.0000000
 augmentation part       40.0000000 magnetization       4.0000000

 Free energy of the ion-electron system (eV)
  ---------------------------------------------------
  alpha Z        PSCENC =       245.13089572
  Ewald energy   TEWEN  =     -3335.35251246
  -Hartree energ DENC   =      -296.09520974
  -exchange      EXHF   =         0.00000000
  -V(xc)+E(xc)   XCENC  =        15.08004980
  PAW double counting   =      2784.18510422    -2671.06884579
  entropy T*S    EENTRO =         0.00002172
  eigenvalues    EBANDS =       544.19948530
  atomic energy  EATOM  =      2916.44780723
  Solvation  Ediel_sol  =         0.00000000
  ---------------------------------------------------
  free energy    TOTEN  =       202.52679602 eV

  energy without entropy =      202.52677430  energy(sigma->0) =      202.52678878


--------------------------------------------------------------------------------------------------------




--------------------------------------- Iteration      1(   2)  ---------------------------------------


     EDDAV:  cpu time  181.0098: real time   77.4797
       DOS:  cpu time    0.0004: real time    0.0004
    --------------------------------------------
      LOOP:  cpu time  181.0102: real time   77.4801

 eigenvalue-minimisations  :   592
 total energy-change (2. order) :-0.2232638E+03  (-0.2117043E+03)
 number of electron      40.0000000 magnetization       4.0000000
 augmentation part       40.0000000 magnetization       4.0000000

 Free energy of the ion-electron system (eV)
  ---------------------------------------------------
  alpha Z        PSCENC =       245.13089572
  Ewald energy   TEWEN  =     -3335.35251246
  -Hartree energ DENC   =      -296.09520974
  -exchange      EXHF   =         0.00000000
  -V(xc)+E(xc)   XCENC  =        15.08004980
  PAW double counting   =      2784.18510422    -2671.06884579
  entropy T*S    EENTRO =        -0.00228847
  eigenvalues    EBANDS =       320.93802521
  atomic energy  EATOM  =      2916.44780723
  Solvation  Ediel_sol  =         0.00000000
  ---------------------------------------------------
  free energy    TOTEN  =       -20.73697427 eV

  energy without entropy =      -20.73468579  energy(sigma->0) =      -20.73621144


--------------------------------------------------------------------------------------------------------




--------------------------------------- Iteration      1(   3)  ---------------------------------------


     EDDAV:  cpu time  181.2783: real time   79.5035
       DOS:  cpu time    0.0004: real time    0.0004
    --------------------------------------------
      LOOP:  cpu time  181.2786: real time   79.5038

 eigenvalue-minimisations  :   600
 total energy-change (2. order) :-0.5289081E+01  (-0.5240353E+01)
 number of electron      40.0000000 magnetization       4.0000000
 augmentation part       40.0000000 magnetization       4.0000000

 Free energy of the ion-electron system (eV)
  ---------------------------------------------------
  alpha Z        PSCENC =       245.13089572
  Ewald energy   TEWEN  =     -3335.35251246
  -Hartree energ DENC   =      -296.09520974
  -exchange      EXHF   =         0.00000000
  -V(xc)+E(xc)   XCENC  =        15.08004980
  PAW double counting   =      2784.18510422    -2671.06884579
  entropy T*S    EENTRO =        -0.00122673
  eigenvalues    EBANDS =       315.64788285
  atomic energy  EATOM  =      2916.44780723
  Solvation  Ediel_sol  =         0.00000000
  ---------------------------------------------------
  free energy    TOTEN  =       -26.02605489 eV

  energy without entropy =      -26.02482816  energy(sigma->0) =      -26.02564598


--------------------------------------------------------------------------------------------------------




--------------------------------------- Iteration      1(   4)  ---------------------------------------


     EDDAV:  cpu time  180.0786: real time   79.5959
       DOS:  cpu time    0.0037: real time    0.0037
    --------------------------------------------
      LOOP:  cpu time  180.0823: real time   79.5996

 eigenvalue-minimisations  :   568
 total energy-change (2. order) :-0.3295684E-01  (-0.3295256E-01)
 number of electron      40.0000000 magnetization       4.0000000
 augmentation part       40.0000000 magnetization       4.0000000

 Free energy of the ion-electron system (eV)
  ---------------------------------------------------
  alpha Z        PSCENC =       245.13089572
  Ewald energy   TEWEN  =     -3335.35251246
  -Hartree energ DENC   =      -296.09520974
  -exchange      EXHF   =         0.00000000
  -V(xc)+E(xc)   XCENC  =        15.08004980
  PAW double counting   =      2784.18510422    -2671.06884579
  entropy T*S    EENTRO =        -0.00122515
  eigenvalues    EBANDS =       315.61492443
  atomic energy  EATOM  =      2916.44780723
  Solvation  Ediel_sol  =         0.00000000
  ---------------------------------------------------
  free energy    TOTEN  =       -26.05901173 eV

  energy without entropy =      -26.05778657  energy(sigma->0) =      -26.05860334


--------------------------------------------------------------------------------------------------------




--------------------------------------- Iteration      1(   5)  ---------------------------------------


     EDDAV:  cpu time  212.3939: real time   97.8737
       DOS:  cpu time    0.0005: real time    0.0005
    CHARGE:  cpu time    0.0473: real time    0.0473
    MIXING:  cpu time    0.0004: real time    0.0004
    --------------------------------------------
      LOOP:  cpu time  212.4422: real time   97.9219

 eigenvalue-minimisations  :   616
 total energy-change (2. order) :-0.3950642E-03  (-0.3950600E-03)
 number of electron      39.9999466 magnetization       0.4725551
 augmentation part       11.7350180 magnetization       0.0120451

 Broyden mixing:
  rms(total) = 0.23930E+01    rms(broyden)= 0.23930E+01
  rms(prec ) = 0.29069E+01
  weight for this iteration     100.00

 Free energy of the ion-electron system (eV)
  ---------------------------------------------------
  alpha Z        PSCENC =       245.13089572
  Ewald energy   TEWEN  =     -3335.35251246
  -Hartree energ DENC   =      -296.09520974
  -exchange      EXHF   =         0.00000000
  -V(xc)+E(xc)   XCENC  =        15.08004980
  PAW double counting   =      2784.18510422    -2671.06884579
  entropy T*S    EENTRO =        -0.00122511
  eigenvalues    EBANDS =       315.61452933
  atomic energy  EATOM  =      2916.44780723
  Solvation  Ediel_sol  =         0.00000000
  ---------------------------------------------------
  free energy    TOTEN  =       -26.05940679 eV

  energy without entropy =      -26.05818167  energy(sigma->0) =      -26.05899842


--------------------------------------------------------------------------------------------------------




--------------------------------------- Iteration      1(   6)  ---------------------------------------


    POTLOK:  cpu time    0.0100: real time    0.0100
    SETDIJ:  cpu time    0.0104: real time    0.0104
     EDDAV:  cpu time  188.3148: real time   82.7832
       DOS:  cpu time    0.0005: real time    0.0005
    CHARGE:  cpu time    0.0450: real time    0.0450
    MIXING:  cpu time    0.0009: real time    0.0033
    --------------------------------------------
      LOOP:  cpu time  188.3815: real time   82.8524

 eigenvalue-minimisations  :   560
 total energy-change (2. order) : 0.9598967E+00  (-0.2008763E+00)
 number of electron      39.9999445 magnetization       1.0873592
 augmentation part       12.1990734 magnetization       0.6769698

 Broyden mixing:
  rms(total) = 0.12279E+01    rms(broyden)= 0.12279E+01
  rms(prec ) = 0.13372E+01
  weight for this iteration     100.00

 eigenvalues of (default mixing * dielectric matrix)
  average eigenvalue GAMMA=   1.3278
  1.3278

 Free energy of the ion-electron system (eV)
  ---------------------------------------------------
  alpha Z        PSCENC =       245.13089572
  Ewald energy   TEWEN  =     -3335.35251246
  -Hartree energ DENC   =      -269.11881989
  -exchange      EXHF   =         0.00000000
  -V(xc)+E(xc)   XCENC  =        13.76444109
  PAW double counting   =      3128.44079521    -3021.22821508
  entropy T*S    EENTRO =        -0.00117596
  eigenvalues    EBANDS =       296.81727409
  atomic energy  EATOM  =      2916.44780723
  Solvation  Ediel_sol  =         0.00000000
  ---------------------------------------------------
  free energy    TOTEN  =       -25.09951005 eV

  energy without entropy =      -25.09833408  energy(sigma->0) =      -25.09911806


--------------------------------------------------------------------------------------------------------




--------------------------------------- Iteration      1(   7)  ---------------------------------------


    POTLOK:  cpu time    0.0104: real time    0.0104
    SETDIJ:  cpu time    0.0096: real time    0.0096
     EDDAV:  cpu time  190.6201: real time   82.1599
       DOS:  cpu time    0.0004: real time    0.0004
    CHARGE:  cpu time    0.0398: real time    0.0398
    MIXING:  cpu time    0.0004: real time    0.0004
    --------------------------------------------
      LOOP:  cpu time  190.6807: real time   82.2205

 eigenvalue-minimisations  :   560
 total energy-change (2. order) : 0.1324968E+00  (-0.4189724E-01)
 number of electron      39.9999439 magnetization       0.9165227
 augmentation part       12.4121122 magnetization       0.5287654

 Broyden mixing:
  rms(total) = 0.50560E+00    rms(broyden)= 0.50560E+00
  rms(prec ) = 0.50792E+00
  weight for this iteration     100.00

 eigenvalues of (default mixing * dielectric matrix)
  average eigenvalue GAMMA=   1.4432
  0.7558  2.1307

 Free energy of the ion-electron system (eV)
  ---------------------------------------------------
  alpha Z        PSCENC =       245.13089572
  Ewald energy   TEWEN  =     -3335.35251246
  -Hartree energ DENC   =      -256.11457667
  -exchange      EXHF   =         0.00000000
  -V(xc)+E(xc)   XCENC  =        13.36530779
  PAW double counting   =      3446.14991301    -3343.23520409
  entropy T*S    EENTRO =        -0.00194402
  eigenvalues    EBANDS =       288.64330020
  atomic energy  EATOM  =      2916.44780723
  Solvation  Ediel_sol  =         0.00000000
  ---------------------------------------------------
  free energy    TOTEN  =       -24.96701328 eV

  energy without entropy =      -24.96506926  energy(sigma->0) =      -24.96636527


--------------------------------------------------------------------------------------------------------




--------------------------------------- Iteration      1(   8)  ---------------------------------------


    POTLOK:  cpu time    0.0090: real time    0.0090
    SETDIJ:  cpu time    0.0077: real time    0.0077
     EDDAV:  cpu time  167.4197: real time   73.0276
       DOS:  cpu time    0.0003: real time    0.0005
    CHARGE:  cpu time    0.0378: real time    0.0378
    MIXING:  cpu time    0.0004: real time    0.0004
    --------------------------------------------
      LOOP:  cpu time  167.4750: real time   73.0830

 eigenvalue-minimisations  :   552
 total energy-change (2. order) : 0.1459144E-01  (-0.1002025E-02)
 number of electron      39.9999438 magnetization       0.8503834
 augmentation part       12.4171768 magnetization       0.4457750

 Broyden mixing:
  rms(total) = 0.20643E+00    rms(broyden)= 0.20643E+00
  rms(prec ) = 0.21189E+00
  weight for this iteration     100.00

 eigenvalues of (default mixing * dielectric matrix)
  average eigenvalue GAMMA=   1.3403
  2.4268  0.9344  0.6597

 Free energy of the ion-electron system (eV)
  ---------------------------------------------------
  alpha Z        PSCENC =       245.13089572
  Ewald energy   TEWEN  =     -3335.35251246
  -Hartree energ DENC   =      -254.90867737
  -exchange      EXHF   =         0.00000000
  -V(xc)+E(xc)   XCENC  =        13.28431696
  PAW double counting   =      3562.68998941    -3460.97147253
  entropy T*S    EENTRO =        -0.00223147
  eigenvalues    EBANDS =       288.72946266
  atomic energy  EATOM  =      2916.44780723
  Solvation  Ediel_sol  =         0.00000000
  ---------------------------------------------------
  free energy    TOTEN  =       -24.95242184 eV

  energy without entropy =      -24.95019037  energy(sigma->0) =      -24.95167802


--------------------------------------------------------------------------------------------------------




--------------------------------------- Iteration      1(   9)  ---------------------------------------


    POTLOK:  cpu time    0.0080: real time    0.0080
    SETDIJ:  cpu time    0.0069: real time    0.0069
     EDDAV:  cpu time  178.3017: real time   77.8935
       DOS:  cpu time    0.0006: real time    0.0006
    CHARGE:  cpu time    0.0606: real time    0.0606
    MIXING:  cpu time    0.0004: real time    0.0004
    --------------------------------------------
      LOOP:  cpu time  178.3782: real time   77.9700

 eigenvalue-minimisations  :   576
 total energy-change (2. order) : 0.7986424E-02  (-0.7537961E-03)
 number of electron      39.9999439 magnetization       0.8911519
 augmentation part       12.3989472 magnetization       0.4727501

 Broyden mixing:
  rms(total) = 0.36911E-01    rms(broyden)= 0.36911E-01
  rms(prec ) = 0.39204E-01
  weight for this iteration     100.00

 eigenvalues of (default mixing * dielectric matrix)
  average eigenvalue GAMMA=   1.3339
  2.5205  1.3137  0.8646  0.6370

 Free energy of the ion-electron system (eV)
  ---------------------------------------------------
  alpha Z        PSCENC =       245.13089572
  Ewald energy   TEWEN  =     -3335.35251246
  -Hartree energ DENC   =      -255.23445305
  -exchange      EXHF   =         0.00000000
  -V(xc)+E(xc)   XCENC  =        13.29197554
  PAW double counting   =      3632.82645785    -3531.67791129
  entropy T*S    EENTRO =        -0.00187154
  eigenvalues    EBANDS =       289.62517658
  atomic energy  EATOM  =      2916.44780723
  Solvation  Ediel_sol  =         0.00000000
  ---------------------------------------------------
  free energy    TOTEN  =       -24.94443541 eV

  energy without entropy =      -24.94256388  energy(sigma->0) =      -24.94381157


--------------------------------------------------------------------------------------------------------




--------------------------------------- Iteration      1(  10)  ---------------------------------------


    POTLOK:  cpu time    0.0081: real time    0.0081
    SETDIJ:  cpu time    0.0079: real time    0.0079
     EDDAV:  cpu time  152.6304: real time   68.3836
       DOS:  cpu time    0.0004: real time    0.0004
    CHARGE:  cpu time    0.0359: real time    0.0359
    MIXING:  cpu time    0.0005: real time    0.0005
    --------------------------------------------
      LOOP:  cpu time  152.6833: real time   68.4365

 eigenvalue-minimisations  :   488
 total energy-change (2. order) : 0.4634028E-03  (-0.9969494E-04)
 number of electron      39.9999439 magnetization       0.8956335
 augmentation part       12.3935940 magnetization       0.4836973

 Broyden mixing:
  rms(total) = 0.56263E-02    rms(broyden)= 0.56259E-02
  rms(prec ) = 0.61441E-02
  weight for this iteration     100.00

 eigenvalues of (default mixing * dielectric matrix)
  average eigenvalue GAMMA=   1.2397
  2.4988  1.3483  0.8603  0.8603  0.6306

 Free energy of the ion-electron system (eV)
  ---------------------------------------------------
  alpha Z        PSCENC =       245.13089572
  Ewald energy   TEWEN  =     -3335.35251246
  -Hartree energ DENC   =      -255.46788036
  -exchange      EXHF   =         0.00000000
  -V(xc)+E(xc)   XCENC  =        13.30272224
  PAW double counting   =      3638.84070762    -3537.68069950
  entropy T*S    EENTRO =        -0.00188092
  eigenvalues    EBANDS =       289.83686841
  atomic energy  EATOM  =      2916.44780723
  Solvation  Ediel_sol  =         0.00000000
  ---------------------------------------------------
  free energy    TOTEN  =       -24.94397201 eV

  energy without entropy =      -24.94209109  energy(sigma->0) =      -24.94334504


--------------------------------------------------------------------------------------------------------




--------------------------------------- Iteration      1(  11)  ---------------------------------------


    POTLOK:  cpu time    0.0080: real time    0.0080
    SETDIJ:  cpu time    0.0074: real time    0.0074
     EDDAV:  cpu time   92.9243: real time   43.9362
       DOS:  cpu time    0.0004: real time    0.0004
    --------------------------------------------
      LOOP:  cpu time   92.9401: real time   43.9520

 eigenvalue-minimisations  :   288
 total energy-change (2. order) : 0.1262933E-05  (-0.1678351E-05)
 number of electron      39.9999439 magnetization       0.8956335
 augmentation part       12.3935940 magnetization       0.4836973

 Free energy of the ion-electron system (eV)
  ---------------------------------------------------
  alpha Z        PSCENC =       245.13089572
  Ewald energy   TEWEN  =     -3335.35251246
  -Hartree energ DENC   =      -255.48791764
  -exchange      EXHF   =         0.00000000
  -V(xc)+E(xc)   XCENC  =        13.30367247
  PAW double counting   =      3638.71653492    -3537.52605351
  entropy T*S    EENTRO =        -0.00187881
  eigenvalues    EBANDS =       289.82548133
  atomic energy  EATOM  =      2916.44780723
  Solvation  Ediel_sol  =         0.00000000
  ---------------------------------------------------
  free energy    TOTEN  =       -24.94397075 eV

  energy without entropy =      -24.94209194  energy(sigma->0) =      -24.94334448


--------------------------------------------------------------------------------------------------------




 average (electrostatic) potential at core
  the test charge radii are     1.2059
  (the norm of the test charge is              1.0000)
       1 -63.3299       2 -63.3299       3 -63.3299       4 -63.3299



 E-fermi :  10.7657     XC(G=0): -13.3193     alpha+bet :-16.1531


 spin component 1

 k-point     1 :       0.0000    0.0000    0.0000
  band No.  band energies     occupation 
      1       0.8174      1.00000
      2       3.9151      1.00000
      3       3.9151      1.00000
      4       3.9151      1.00000
      5       4.3460      1.00000
      6       4.3460      1.00000
      7       4.3460      1.00000
      8       7.0433      1.00000
      9       7.0433      1.00000
     10       7.0433      1.00000
     11       9.0938      1.00000
     12       9.0938      1.00000
     13      10.6483      1.00222
     14      10.6483      1.00222
     15      10.6483      1.00222
     16      11.1095     -0.00000
     17      11.1095     -0.00000
     18      11.1095     -0.00000
     19      11.1095     -0.00000
     20      11.1095     -0.00000
     21      11.1095     -0.00000
     22      12.5653      0.00000
     23      12.5653      0.00000
     24      12.5653      0.00000
     25      19.2576      0.00000
     26      19.2576      0.00000
     27      19.2576      0.00000
     28      22.0266      0.00000
     29      22.0266      0.00000
     30      22.0266      0.00000
     31      22.0266      0.00000
     32      22.0266      0.00000

 k-point     2 :       0.3333    0.0000    0.0000
  band No.  band energies     occupation 
      1       2.1913      1.00000
      2       4.1751      1.00000
      3       4.8258      1.00000
      4       4.8258      1.00000
      5       4.9117      1.00000
      6       5.2367      1.00000
      7       5.2367      1.00000
      8       6.2373      1.00000
      9       7.7687      1.00000
     10       7.7687      1.00000
     11       7.7994      1.00000
     12       7.7994      1.00000
     13       8.2336      1.00000
     14       8.6956      1.00000
     15       9.3505      1.00000
     16       9.3505      1.00000
     17       9.4491      1.00000
     18       9.6778      1.00000
     19       9.6778      1.00000
     20      10.2231      1.00000
     21      11.1118     -0.00000
     22      11.1118     -0.00000
     23      16.6251      0.00000
     24      16.6251      0.00000
     25      17.8860      0.00000
     26      17.8860      0.00000
     27      20.6266      0.00000
     28      20.6266      0.00000
     29      22.4840      0.00000
     30      22.4840      0.00000
     31      24.9685      0.00000
     32      24.9685      0.00000

 k-point     3 :       0.3333    0.3333    0.0000
  band No.  band energies     occupation 
      1       3.3096      1.00000
      2       5.0723      1.00000
      3       5.2109      1.00000
      4       5.2109      1.00000
      5       5.6024      1.00000
      6       5.6024      1.00000
      7       6.0222      1.00000
      8       6.2332      1.00000
      9       6.5334      1.00000
     10       6.5334      1.00000
     11       7.1459      1.00000
     12       7.3429      1.00000
     13       8.0019      1.00000
     14       8.2884      1.00000
     15       8.8602      1.00000
     16       9.1677      1.00000
     17       9.1677      1.00000
     18       9.6701      1.00000
     19       9.6701      1.00000
     20      10.0428      1.00000
     21      10.2254      1.00000
     22      12.5914      0.00000
     23      12.5914      0.00000
     24      14.9387      0.00000
     25      19.2907      0.00000
     26      20.1895      0.00000
     27      21.2124      0.00000
     28      21.2124      0.00000
     29      23.2272      0.00000
     30      23.2272      0.00000
     31      24.6439      0.00000
     32      26.2800      0.00000

 k-point     4 :       0.3333    0.3333    0.3333
  band No.  band energies     occupation 
      1       3.4800      1.00000
      2       4.3880      1.00000
      3       4.3880      1.00000
      4       4.3880      1.00000
      5       6.4373      1.00000
      6       6.4373      1.00000
      7       6.4373      1.00000
      8       7.2342      1.00000
      9       7.2342      1.00000
     10       7.5709      1.00000
     11       7.6428      1.00000
     12       7.6428      1.00000
     13       7.6428      1.00000
     14       7.7251      1.00000
     15       7.7251      1.00000
     16       7.7251      1.00000
     17       9.8624      1.00000
     18       9.8624      1.00000
     19      10.7399      0.87877
     20      10.7399      0.87877
     21      10.7399      0.87877
     22      13.1115      0.00000
     23      13.1115      0.00000
     24      13.1115      0.00000
     25      16.9784      0.00000
     26      16.9784      0.00000
     27      16.9784      0.00000
     28      20.8162      0.00000
     29      25.8304      0.00000
     30      25.8304      0.00000
     31      25.8304      0.00000
     32      26.1453      0.00000

 spin component 2

 k-point     1 :       0.0000    0.0000    0.0000
  band No.  band energies     occupation 
      1       0.8407      1.00000
      2       4.0212      1.00000
      3       4.0212      1.00000
      4       4.0212      1.00000
      5       4.4567      1.00000
      6       4.4567      1.00000
      7       4.4567      1.00000
      8       7.1814      1.00000
      9       7.1814      1.00000
     10       7.1814      1.00000
     11       9.2686      1.00000
     12       9.2686      1.00000
     13      10.8359     -0.03160
     14      10.8359     -0.03160
     15      10.8359     -0.03160
     16      11.2793     -0.00000
     17      11.2793     -0.00000
     18      11.2793     -0.00000
     19      11.2793     -0.00000
     20      11.2793     -0.00000
     21      11.2793     -0.00000
     22      12.5696      0.00000
     23      12.5696      0.00000
     24      12.5696      0.00000
     25      19.3720      0.00000
     26      19.3720      0.00000
     27      19.3720      0.00000
     28      22.0487      0.00000
     29      22.0487      0.00000
     30      22.0487      0.00000
     31      22.0487      0.00000
     32      22.0487      0.00000

 k-point     2 :       0.3333    0.0000    0.0000
  band No.  band energies     occupation 
      1       2.2157      1.00000
      2       4.2537      1.00000
      3       4.9375      1.00000
      4       4.9375      1.00000
      5       5.0268      1.00000
      6       5.3464      1.00000
      7       5.3464      1.00000
      8       6.3653      1.00000
      9       7.9089      1.00000
     10       7.9089      1.00000
     11       7.9094      1.00000
     12       7.9094      1.00000
     13       8.3939      1.00000
     14       8.7732      1.00000
     15       9.5151      1.00000
     16       9.5151      1.00000
     17       9.6265      1.00000
     18       9.8303      1.00000
     19       9.8303      1.00000
     20      10.4068      1.00000
     21      11.2817     -0.00000
     22      11.2817     -0.00000
     23      16.6835      0.00000
     24      16.6835      0.00000
     25      17.9768      0.00000
     26      17.9768      0.00000
     27      20.6649      0.00000
     28      20.6649      0.00000
     29      22.5505      0.00000
     30      22.5505      0.00000
     31      25.0078      0.00000
     32      25.0078      0.00000

 k-point     3 :       0.3333    0.3333    0.0000
  band No.  band energies     occupation 
      1       3.3396      1.00000
      2       5.1850      1.00000
      3       5.2898      1.00000
      4       5.2898      1.00000
      5       5.7152      1.00000
      6       5.7152      1.00000
      7       6.1238      1.00000
      8       6.3540      1.00000
      9       6.6528      1.00000
     10       6.6528      1.00000
     11       7.2531      1.00000
     12       7.4824      1.00000
     13       8.1464      1.00000
     14       8.4518      1.00000
     15       9.0246      1.00000
     16       9.3245      1.00000
     17       9.3245      1.00000
     18       9.8241      1.00000
     19       9.8241      1.00000
     20      10.2031      1.00000
     21      10.3913      1.00000
     22      12.7239      0.00000
     23      12.7239      0.00000
     24      15.0206      0.00000
     25      19.3574      0.00000
     26      20.2714      0.00000
     27      21.2686      0.00000
     28      21.2686      0.00000
     29      23.2812      0.00000
     30      23.2812      0.00000
     31      24.6864      0.00000
     32      26.3240      0.00000

 k-point     4 :       0.3333    0.3333    0.3333
  band No.  band energies     occupation 
      1       3.5389      1.00000
      2       4.4752      1.00000
      3       4.4752      1.00000
      4       4.4752      1.00000
      5       6.5688      1.00000
      6       6.5688      1.00000
      7       6.5688      1.00000
      8       7.3807      1.00000
      9       7.3807      1.00000
     10       7.6413      1.00000
     11       7.7384      1.00000
     12       7.7384      1.00000
     13       7.7384      1.00000
     14       7.8755      1.00000
     15       7.8755      1.00000
     16       7.8755      1.00000
     17      10.0312      1.00000
     18      10.0312      1.00000
     19      10.9152     -0.00010
     20      10.9152     -0.00010
     21      10.9152     -0.00010
     22      13.2108      0.00000
     23      13.2108      0.00000
     24      13.2108      0.00000
     25      17.0695      0.00000
     26      17.0695      0.00000
     27      17.0695      0.00000
     28      20.8863      0.00000
     29      25.8556      0.00000
     30      25.8556      0.00000
     31      25.8556      0.00000
     32      26.1530      0.00000


--------------------------------------------------------------------------------------------------------


 soft charge-density along one line, spin component           1
         0         1         2         3         4         5         6         7         8         9
 total charge-density along one line

 soft charge-density along one line, spin component           2
         0         1         2         3         4         5         6         7         8         9
 total charge-density along one line

 pseudopotential strength for first ion, spin component:           1
 -2.667  -0.000  -0.000   0.000  -0.000  -2.879  -0.000  -0.000
 -0.000  -2.667   0.000  -0.000  -0.000  -0.000  -2.879   0.000
 -0.000   0.000  -2.627   0.000   0.000  -0.000   0.000  -2.839
  0.000  -0.000   0.000  -2.667  -0.000   0.000  -0.000   0.000
 -0.000  -0.000   0.000  -0.000  -2.627  -0.000  -0.000   0.000
 -2.879  -0.000  -0.000   0.000  -0.000  -3.071  -0.000  -0.000
 -0.000  -2.879   0.000  -0.000  -0.000  -0.000  -3.071   0.000
 -0.000   0.000  -2.839   0.000   0.000  -0.000   0.000  -3.033
  0.000  -0.000   0.000  -2.879  -0.000   0.000  -0.000   0.000
 -0.000  -0.000   0.000  -0.000  -2.839  -0.000  -0.000   0.000
 -0.000  -0.000   0.000   0.000   0.000  -0.000  -0.000   0.000
 -0.000  -0.000   0.000   0.000   0.000  -0.000  -0.000   0.000
  0.000   0.000   0.000  -0.000   0.000   0.000   0.000   0.000
 -0.000   0.000   0.000  -0.000   0.000  -0.000   0.000   0.000
  0.000  -0.000   0.000   0.000  -0.000   0.000  -0.000   0.000
 -0.000   0.000   0.000  -0.000   0.000   0.000   0.000   0.000
 -0.000   0.000   0.000  -0.000   0.000  -0.000   0.000   0.000
  0.000  -0.000   0.000   0.000  -0.000   0.000  -0.000   0.000
 pseudopotential strength for first ion, spin component:           2
 -2.606   0.000  -0.000   0.000  -0.000  -2.819   0.000  -0.000
  0.000  -2.606  -0.000  -0.000   0.000   0.000  -2.819  -0.000
 -0.000  -0.000  -2.560   0.000   0.000  -0.000  -0.000  -2.774
  0.000  -0.000   0.000  -2.606  -0.000   0.000  -0.000   0.000
 -0.000   0.000   0.000  -0.000  -2.560  -0.000   0.000   0.000
 -2.819   0.000  -0.000   0.000  -0.000  -3.013   0.000  -0.000
  0.000  -2.819  -0.000  -0.000   0.000   0.000  -3.013  -0.000
 -0.000  -0.000  -2.774   0.000   0.000  -0.000  -0.000  -2.968
  0.000  -0.000   0.000  -2.819  -0.000   0.000  -0.000   0.000
 -0.000   0.000   0.000  -0.000  -2.774  -0.000   0.000   0.000
 -0.000   0.000   0.000  -0.000   0.000  -0.000   0.000   0.000
 -0.000   0.000   0.000  -0.000   0.000  -0.000   0.000   0.000
  0.000   0.000   0.000  -0.000   0.000   0.000   0.000   0.000
 -0.000   0.000   0.000  -0.000   0.000  -0.000   0.000   0.000
  0.000  -0.000   0.000   0.000  -0.000   0.000  -0.000   0.000
  0.000   0.000   0.000  -0.000   0.000   0.000   0.000   0.000
 -0.000   0.000   0.000   0.000   0.000  -0.000   0.000   0.000
  0.000  -0.000   0.000   0.000  -0.000   0.000  -0.000   0.000
 total augmentation occupancy for first ion, spin component:           1
  3.982  -0.000   0.000   0.000  -0.000  -2.881   0.000  -0.000  -0.000   0.000   0.000  -0.000  -0.000   0.000  -0.000  -0.000
 -0.000   3.982   0.000   0.000  -0.000  -0.000  -2.881   0.000   0.000   0.000   0.000  -0.000   0.000   0.000   0.000   0.000
  0.000   0.000   5.026   0.000   0.000   0.000   0.000  -3.208  -0.000   0.000   0.000   0.000  -0.000  -0.000   0.000   0.000
  0.000   0.000   0.000   3.982  -0.000   0.000   0.000   0.000  -2.881   0.000   0.000  -0.000   0.000  -0.000   0.000   0.000
 -0.000   0.000   0.000   0.000   5.026   0.000  -0.000   0.000  -0.000  -3.208  -0.000  -0.000   0.000  -0.000  -0.000   0.000
 -2.881  -0.000   0.000   0.000   0.000   3.443   0.000  -0.000   0.000  -0.000  -0.000  -0.000  -0.000   0.000   0.000   0.000
  0.000  -2.881   0.000  -0.000  -0.000   0.000   3.443  -0.000   0.000   0.000   0.000  -0.000  -0.000   0.000   0.000  -0.000
 -0.000   0.000  -3.208   0.000   0.000  -0.000  -0.000   3.239  -0.000   0.000   0.000   0.000   0.000   0.000   0.000   0.000
 -0.000   0.000  -0.000  -2.881  -0.000   0.000   0.000   0.000   3.443  -0.000  -0.000  -0.000  -0.000  -0.000  -0.000   0.000
  0.000   0.000  -0.000   0.000  -3.208  -0.000   0.000  -0.000  -0.000   3.239  -0.000   0.000  -0.000   0.000   0.000  -0.000
  0.000   0.000  -0.000   0.000  -0.000  -0.000   0.000   0.000   0.000  -0.000   2.549  -0.583   0.000   0.000   0.000   0.000
  0.000  -0.000   0.000  -0.000   0.000  -0.000  -0.000   0.000   0.000  -0.000  -0.583   0.151   0.000   0.000   0.000   0.000
 -0.000   0.000  -0.000   0.000  -0.000  -0.000  -0.000   0.000  -0.000   0.000   0.000   0.000   0.290   0.000   0.000  -0.016
  0.000   0.000  -0.000  -0.000   0.000   0.000   0.000  -0.000  -0.000   0.000   0.000   0.000   0.000   0.290   0.000   0.000
 -0.000   0.000   0.000   0.000   0.000   0.000   0.000   0.000  -0.000   0.000   0.000   0.000   0.000   0.000   0.290  -0.000
 -0.000   0.000  -0.000   0.000  -0.000   0.000  -0.000   0.000   0.000  -0.000   0.000   0.000  -0.016   0.000  -0.000   0.001
  0.000  -0.000  -0.000   0.000  -0.000  -0.000   0.000  -0.000  -0.000   0.000   0.000   0.000  -0.000  -0.016  -0.000  -0.000
  0.000  -0.000  -0.000   0.000  -0.000   0.000   0.000   0.000   0.000   0.000   0.000   0.000  -0.000   0.000  -0.016   0.000
 total augmentation occupancy for first ion, spin component:           2
  0.499  -0.000  -0.000  -0.000   0.000  -0.316  -0.000  -0.000  -0.000  -0.000  -0.000  -0.000   0.000  -0.000  -0.000  -0.000
 -0.000   0.499   0.000  -0.000   0.000   0.000  -0.316  -0.000  -0.000  -0.000  -0.000  -0.000   0.000  -0.000   0.000   0.000
 -0.000   0.000   0.641   0.000   0.000   0.000  -0.000  -0.415  -0.000  -0.000   0.000   0.000  -0.000   0.000   0.000   0.000
 -0.000  -0.000   0.000   0.499  -0.000   0.000  -0.000  -0.000  -0.316   0.000   0.000   0.000   0.000   0.000   0.000   0.000
 -0.000   0.000   0.000   0.000   0.641  -0.000  -0.000  -0.000  -0.000  -0.415   0.000   0.000   0.000   0.000   0.000  -0.000
 -0.316   0.000   0.000   0.000  -0.000   0.183   0.000   0.000   0.000   0.000   0.000   0.000  -0.000   0.000  -0.000   0.000
 -0.000  -0.316  -0.000   0.000   0.000  -0.000   0.183   0.000   0.000   0.000   0.000  -0.000  -0.000   0.000   0.000   0.000
 -0.000  -0.000  -0.415  -0.000  -0.000  -0.000   0.000   0.253   0.000   0.000  -0.000  -0.000   0.000   0.000   0.000   0.000
 -0.000   0.000  -0.000  -0.316  -0.000   0.000   0.000   0.000   0.183   0.000   0.000  -0.000  -0.000   0.000   0.000   0.000
 -0.000  -0.000  -0.000   0.000  -0.415   0.000   0.000   0.000   0.000   0.253  -0.000  -0.000  -0.000  -0.000   0.000   0.000
 -0.000  -0.000  -0.000   0.000  -0.000   0.000   0.000  -0.000   0.000  -0.000  -0.032   0.014   0.000   0.000   0.000   0.000
 -0.000  -0.000  -0.000   0.000   0.000   0.000   0.000  -0.000  -0.000  -0.000   0.014  -0.004   0.000   0.000   0.000   0.000
  0.000   0.000   0.000   0.000   0.000  -0.000  -0.000   0.000  -0.000   0.000   0.000   0.000  -0.003  -0.000   0.000   0.000
 -0.000  -0.000   0.000   0.000   0.000   0.000   0.000   0.000   0.000  -0.000   0.000   0.000   0.000  -0.003   0.000   0.000
 -0.000   0.000   0.000   0.000   0.000  -0.000   0.000  -0.000   0.000   0.000   0.000   0.000   0.000   0.000  -0.003   0.000
 -0.000   0.000   0.000   0.000  -0.000   0.000   0.000  -0.000   0.000  -0.000   0.000   0.000   0.000   0.000   0.000  -0.000
  0.000   0.000  -0.000   0.000   0.000  -0.000   0.000   0.000  -0.000   0.000   0.000   0.000   0.000   0.000   0.000   0.000
  0.000  -0.000  -0.000  -0.000   0.000   0.000   0.000   0.000  -0.000  -0.000   0.000   0.000   0.000   0.000   0.000   0.000


------------------------ aborting loop because EDIFF is reached ----------------------------------------


    CHARGE:  cpu time    0.0392: real time    0.0392
    FORLOC:  cpu time    0.0003: real time    0.0003
    FORNL :  cpu time    0.0582: real time    0.0582
    STRESS:  cpu time    0.6914: real time    0.3216
    FORCOR:  cpu time    0.0073: real time    0.0073
    FORHAR:  cpu time    0.0009: real time    0.0009
    MIXING:  cpu time    0.0007: real time    0.0007
    OFIELD:  cpu time    0.0000: real time    0.0000

  FORCE on cell =-STRESS in cart. coord.  units (eV):
  Direction    XX          YY          ZZ          XY          YZ          ZX
  --------------------------------------------------------------------------------------
  Alpha Z   245.13090   245.13090   245.13090
  Ewald   -1111.78466 -1111.78466 -1111.78466    -0.00000    -0.00000    -0.00000
  Hartree    85.16618    85.16618    85.16618    -0.00000    -0.00000    -0.00000
  E(xc)    -178.28174  -178.28174  -178.28174     0.00000    -0.00000    -0.00000
  Local     145.07473   145.07473   145.07473    -0.00000     0.00000    -0.00000
  n-local    30.59149    16.25163    17.93645    16.26649     5.79729     5.79730
  augment   210.41338   210.41338   210.41338     0.00000     0.00000    -0.00000
  Kinetic   592.41796   577.44783   578.06915     8.18803     2.13947     2.13947
  Fock        0.00000     0.00000     0.00000     0.00000     0.00000     0.00000
  -------------------------------------------------------------------------------------
  Total      -0.04304    -0.04304    -0.04304    -0.00000     0.00000    -0.00000
  in kB      -1.11128    -1.11128    -1.11128    -0.00000     0.00000    -0.00000
  external pressure =       -1.11 kB  Pullay stress =        0.00 kB


 VOLUME and BASIS-vectors are now :
 -----------------------------------------------------------------------------
  energy-cutoff  :      400.00
  volume of cell :       62.05
      direct lattice vectors                 reciprocal lattice vectors
     3.958864229  0.000000000  0.000000000     0.252597700  0.000000000  0.000000000
     0.000000000  3.958864229  0.000000000     0.000000000  0.252597700  0.000000000
     0.000000000  0.000000000  3.958864229     0.000000000  0.000000000  0.252597700

  length of vectors
     3.958864229  3.958864229  3.958864229     0.252597700  0.252597700  0.252597700


 FORCES acting on ions
    electron-ion (+dipol)            ewald-force                    non-local-force                 convergence-correction
 -----------------------------------------------------------------------------------------------
   0.144E-14 0.208E-15 0.336E-16   0.839E-14 -.815E-14 -.156E-15   0.000E+00 0.132E-22 0.132E-21   -.103E-14 0.514E-15 0.228E-13
   0.681E-13 0.681E-13 -.278E-12   0.147E-14 -.148E-14 -.325E-15   -.728E-22 0.662E-23 0.662E-22   -.252E-14 -.119E-14 0.327E-13
   0.683E-13 0.341E-15 0.391E-12   0.580E-14 0.306E-14 -.113E-14   -.331E-22 0.298E-22 -.397E-22   -.487E-15 0.114E-14 -.343E-13
   0.327E-15 0.684E-13 0.680E-13   -.166E-13 0.973E-14 -.130E-14   -.662E-23 -.529E-22 0.000E+00   -.156E-14 -.978E-15 -.231E-13
 -----------------------------------------------------------------------------------------------
   0.138E-12 0.137E-12 0.181E-12   -.981E-15 0.317E-14 -.291E-14   -.112E-21 -.331E-23 0.159E-21   -.559E-14 -.506E-15 -.189E-14


 POSITION                                       TOTAL-FORCE (eV/Angst)
 -----------------------------------------------------------------------------------
      0.00000      0.00000      0.00000         0.000000      0.000000     -0.000000
      1.97943      1.97943      0.00000         0.000000     -0.000000      0.000000
      1.97943      0.00000      1.97943        -0.000000     -0.000000     -0.000000
      0.00000      1.97943      1.97943        -0.000000      0.000000      0.000000
 -----------------------------------------------------------------------------------
    total drift:                                0.000000      0.000000      0.000000


--------------------------------------------------------------------------------------------------------



  FREE ENERGIE OF THE ION-ELECTRON SYSTEM (eV)
  ---------------------------------------------------
  free  energy   TOTEN  =       -24.94397075 eV

  energy  without entropy=      -24.94209194  energy(sigma->0) =      -24.94334448



--------------------------------------------------------------------------------------------------------


    POTLOK:  cpu time    0.0174: real time    0.0174


--------------------------------------------------------------------------------------------------------


 stress matrix after NEB project (eV)
     -0.04304      0.00000     -0.00000
     -0.00000     -0.04304     -0.00000
     -0.00000      0.00000     -0.04304
  FORCES: max atom, RMS     0.000000    0.000000
  FORCE total and by dimension    0.000000    0.000000
  Stress total and by dimension    0.074539    0.043035
 writing wavefunctions
     LOOP+:  cpu time 1883.6281: real time  831.9338
    4ORBIT:  cpu time    0.0000: real time    0.0012

 total amount of memory used by VASP MPI-rank0    33834. kBytes
=======================================================================

   base      :      30000. kBytes
   nonl-proj :        732. kBytes
   fftplans  :        266. kBytes
   grid      :       2090. kBytes
   one-center:        124. kBytes
   wavefun   :        622. kBytes

  
  
 General timing and accounting informations for this job:
 ========================================================
  
                  Total CPU time used (sec):     1890.968
                            User time (sec):      388.123
                          System time (sec):     1502.845
                         Elapsed time (sec):      836.182
  
                   Maximum memory used (kb):       74724.
                   Average memory used (kb):           0.
  
                          Minor page faults:         3883
                          Major page faults:           77
                 Voluntary context switches:        46529
