  67  67   0   0
  0.5111729E+02  0.1121440E-08  0.1121440E-08  0.3144560E-08  0.5000000E-15
  1.000000000000000E-004
  CAR 
 Pt                                      
      5.82574624    -24.33107029  301     -0.92011013      1.00000000
    -24.331  0.0000E+00  0.0000E+00
    -24.231  0.0000E+00  0.0000E+00
    -24.130  0.0000E+00  0.0000E+00
    -24.030  0.0000E+00  0.0000E+00
    -23.929  0.0000E+00  0.0000E+00
    -23.828 -0.4459E-33 -0.4482E-34
    -23.728 -0.5466E-26 -0.5495E-27
    -23.627 -0.8727E-20 -0.8773E-21
    -23.527 -0.1750E-14 -0.1759E-15
    -23.426 -0.4575E-10 -0.4599E-11
    -23.326 -0.1490E-06 -0.1498E-07
    -23.225 -0.5704E-04 -0.5749E-05
    -23.125 -0.2029E-02 -0.2097E-03
    -23.024  0.8322E-02  0.6268E-03
    -22.924  0.7207E-01  0.7871E-02
    -22.823  0.2444E-01  0.1033E-01
    -22.723 -0.3066E-02  0.1002E-01
    -22.622 -0.1965E-03  0.1000E-01
    -22.522 -0.9455E-06  0.1000E-01
    -22.421 -0.5176E-09  0.1000E-01
    -22.321 -0.3493E-13  0.1000E-01
    -22.220  0.0000E+00  0.1000E-01
    -22.120  0.0000E+00  0.1000E-01
    -22.019  0.0000E+00  0.1000E-01
    -21.919  0.0000E+00  0.1000E-01
    -21.818  0.0000E+00  0.1000E-01
    -21.717  0.0000E+00  0.1000E-01
    -21.617  0.0000E+00  0.1000E-01
    -21.516  0.0000E+00  0.1000E-01
    -21.416  0.0000E+00  0.1000E-01
    -21.315  0.0000E+00  0.1000E-01
    -21.215  0.0000E+00  0.1000E-01
    -21.114  0.0000E+00  0.1000E-01
    -21.014  0.0000E+00  0.1000E-01
    -20.913  0.0000E+00  0.1000E-01
    -20.813  0.0000E+00  0.1000E-01
    -20.712  0.0000E+00  0.1000E-01
    -20.612  0.0000E+00  0.1000E-01
    -20.511  0.0000E+00  0.1000E-01
    -20.411  0.0000E+00  0.1000E-01
    -20.310  0.0000E+00  0.1000E-01
    -20.210  0.0000E+00  0.1000E-01
    -20.109  0.0000E+00  0.1000E-01
    -20.009  0.0000E+00  0.1000E-01
    -19.908  0.0000E+00  0.1000E-01
    -19.808  0.0000E+00  0.1000E-01
    -19.707  0.0000E+00  0.1000E-01
    -19.607  0.0000E+00  0.1000E-01
    -19.506  0.0000E+00  0.1000E-01
    -19.405  0.0000E+00  0.1000E-01
    -19.305  0.0000E+00  0.1000E-01
    -19.204  0.0000E+00  0.1000E-01
    -19.104  0.0000E+00  0.1000E-01
    -19.003  0.0000E+00  0.1000E-01
    -18.903  0.0000E+00  0.1000E-01
    -18.802  0.0000E+00  0.1000E-01
    -18.702  0.0000E+00  0.1000E-01
    -18.601  0.0000E+00  0.1000E-01
    -18.501  0.0000E+00  0.1000E-01
    -18.400  0.0000E+00  0.1000E-01
    -18.300  0.0000E+00  0.1000E-01
    -18.199  0.0000E+00  0.1000E-01
    -18.099  0.0000E+00  0.1000E-01
    -17.998  0.0000E+00  0.1000E-01
    -17.898  0.0000E+00  0.1000E-01
    -17.797  0.0000E+00  0.1000E-01
    -17.697  0.0000E+00  0.1000E-01
    -17.596  0.0000E+00  0.1000E-01
    -17.496  0.0000E+00  0.1000E-01
    -17.395  0.0000E+00  0.1000E-01
    -17.294  0.0000E+00  0.1000E-01
    -17.194  0.0000E+00  0.1000E-01
    -17.093  0.0000E+00  0.1000E-01
    -16.993  0.0000E+00  0.1000E-01
    -16.892  0.0000E+00  0.1000E-01
    -16.792  0.0000E+00  0.1000E-01
    -16.691  0.0000E+00  0.1000E-01
    -16.591  0.0000E+00  0.1000E-01
    -16.490  0.0000E+00  0.1000E-01
    -16.390  0.0000E+00  0.1000E-01
    -16.289  0.0000E+00  0.1000E-01
    -16.189  0.0000E+00  0.1000E-01
    -16.088  0.0000E+00  0.1000E-01
    -15.988  0.0000E+00  0.1000E-01
    -15.887  0.0000E+00  0.1000E-01
    -15.787  0.0000E+00  0.1000E-01
    -15.686  0.0000E+00  0.1000E-01
    -15.586  0.0000E+00  0.1000E-01
    -15.485  0.0000E+00  0.1000E-01
    -15.385  0.0000E+00  0.1000E-01
    -15.284  0.0000E+00  0.1000E-01
    -15.184  0.0000E+00  0.1000E-01
    -15.083  0.0000E+00  0.1000E-01
    -14.982  0.0000E+00  0.1000E-01
    -14.882  0.0000E+00  0.1000E-01
    -14.781  0.0000E+00  0.1000E-01
    -14.681  0.0000E+00  0.1000E-01
    -14.580  0.0000E+00  0.1000E-01
    -14.480  0.0000E+00  0.1000E-01
    -14.379  0.0000E+00  0.1000E-01
    -14.279  0.0000E+00  0.1000E-01
    -14.178  0.0000E+00  0.1000E-01
    -14.078  0.0000E+00  0.1000E-01
    -13.977  0.0000E+00  0.1000E-01
    -13.877  0.0000E+00  0.1000E-01
    -13.776  0.0000E+00  0.1000E-01
    -13.676  0.0000E+00  0.1000E-01
    -13.575  0.0000E+00  0.1000E-01
    -13.475  0.0000E+00  0.1000E-01
    -13.374  0.0000E+00  0.1000E-01
    -13.274  0.0000E+00  0.1000E-01
    -13.173  0.0000E+00  0.1000E-01
    -13.073  0.0000E+00  0.1000E-01
    -12.972  0.0000E+00  0.1000E-01
    -12.871  0.0000E+00  0.1000E-01
    -12.771  0.0000E+00  0.1000E-01
    -12.670  0.0000E+00  0.1000E-01
    -12.570  0.0000E+00  0.1000E-01
    -12.469  0.0000E+00  0.1000E-01
    -12.369  0.0000E+00  0.1000E-01
    -12.268  0.0000E+00  0.1000E-01
    -12.168 -0.1753E-31  0.1000E-01
    -12.067 -0.1389E-24  0.1000E-01
    -11.967 -0.1431E-18  0.1000E-01
    -11.866 -0.1844E-13  0.1000E-01
    -11.766 -0.3093E-09  0.1000E-01
    -11.665 -0.6410E-06  0.1000E-01
    -11.565 -0.1524E-03  0.9985E-02
    -11.464 -0.2893E-02  0.9694E-02
    -11.364  0.2035E-01  0.1174E-01
    -11.263  0.7333E-01  0.1911E-01
    -11.163  0.1121E-01  0.2024E-01
    -11.062 -0.2285E-02  0.2001E-01
    -10.962 -0.7582E-04  0.2000E-01
    -10.861 -0.2260E-06  0.2000E-01
    -10.761 -0.7866E-10  0.2000E-01
    -10.660 -0.4902E-11  0.2000E-01
    -10.559 -0.1409E-07  0.2000E-01
    -10.459 -0.4738E-05  0.2000E-01
    -10.358 -0.1483E-03  0.1998E-01
    -10.258  0.3081E-03  0.2002E-01
    -10.157  0.4538E-02  0.2047E-01
    -10.057  0.2354E-01  0.2284E-01
     -9.956  0.1545E-01  0.2439E-01
     -9.856  0.4755E-02  0.2487E-01
     -9.755  0.2957E-01  0.2784E-01
     -9.655  0.3062E-01  0.3092E-01
     -9.554  0.1060E-01  0.3199E-01
     -9.454 -0.3361E-02  0.3165E-01
     -9.353  0.1881E-01  0.3354E-01
     -9.253  0.5210E-01  0.3878E-01
     -9.152  0.1104E-01  0.3989E-01
     -9.052  0.2590E-01  0.4249E-01
     -8.951  0.7185E-02  0.4321E-01
     -8.851  0.1920E-02  0.4340E-01
     -8.750  0.4521E-01  0.4795E-01
     -8.650  0.8220E-01  0.5621E-01
     -8.549  0.3353E-01  0.5958E-01
     -8.448  0.3893E-01  0.6350E-01
     -8.348  0.5690E-01  0.6922E-01
     -8.247  0.6907E-02  0.6991E-01
     -8.147  0.5784E-02  0.7049E-01
     -8.046  0.1148E+00  0.8203E-01
     -7.946  0.1112E+00  0.9321E-01
     -7.845  0.6929E-01  0.1002E+00
     -7.745  0.8721E-01  0.1089E+00
     -7.644  0.3397E-01  0.1124E+00
     -7.544  0.1296E+00  0.1254E+00
     -7.443  0.2575E+00  0.1513E+00
     -7.343  0.2474E+00  0.1761E+00
     -7.242  0.1657E+00  0.1928E+00
     -7.142  0.2813E+00  0.2211E+00
     -7.041  0.3341E+00  0.2546E+00
     -6.941  0.2620E+00  0.2810E+00
     -6.840  0.2827E+00  0.3094E+00
     -6.740  0.3275E+00  0.3423E+00
     -6.639  0.3565E+00  0.3782E+00
     -6.539  0.4894E+00  0.4274E+00
     -6.438  0.5314E+00  0.4808E+00
     -6.338  0.4936E+00  0.5304E+00
     -6.237  0.5020E+00  0.5809E+00
     -6.136  0.4474E+00  0.6258E+00
     -6.036  0.3615E+00  0.6622E+00
     -5.935  0.3411E+00  0.6964E+00
     -5.835  0.2860E+00  0.7252E+00
     -5.734  0.1408E+00  0.7394E+00
     -5.634  0.3843E+00  0.7780E+00
     -5.533  0.5139E+00  0.8296E+00
     -5.433  0.4005E+00  0.8699E+00
     -5.332  0.3719E+00  0.9073E+00
     -5.232  0.4200E+00  0.9495E+00
     -5.131  0.4813E+00  0.9979E+00
     -5.031  0.4010E+00  0.1038E+01
     -4.930  0.3881E+00  0.1077E+01
     -4.830  0.2886E+00  0.1106E+01
     -4.729  0.3864E+00  0.1145E+01
     -4.629  0.4810E+00  0.1193E+01
     -4.528  0.5501E+00  0.1249E+01
     -4.428  0.6585E+00  0.1315E+01
     -4.327  0.6242E+00  0.1378E+01
     -4.227  0.4717E+00  0.1425E+01
     -4.126  0.6577E+00  0.1491E+01
     -4.025  0.7751E+00  0.1569E+01
     -3.925  0.7432E+00  0.1644E+01
     -3.824  0.7134E+00  0.1716E+01
     -3.724  0.7256E+00  0.1788E+01
     -3.623  0.7434E+00  0.1863E+01
     -3.523  0.6050E+00  0.1924E+01
     -3.422  0.3686E+00  0.1961E+01
     -3.322  0.3924E+00  0.2000E+01
     -3.221  0.3689E+00  0.2038E+01
     -3.121  0.3232E+00  0.2070E+01
     -3.020  0.4990E+00  0.2120E+01
     -2.920  0.7575E+00  0.2196E+01
     -2.819  0.6286E+00  0.2260E+01
     -2.719  0.4116E+00  0.2301E+01
     -2.618  0.3982E+00  0.2341E+01
     -2.518  0.3745E+00  0.2379E+01
     -2.417  0.4398E+00  0.2423E+01
     -2.317  0.4397E+00  0.2467E+01
     -2.216  0.5182E+00  0.2519E+01
     -2.116  0.5230E+00  0.2572E+01
     -2.015  0.7097E+00  0.2643E+01
     -1.915  0.7027E+00  0.2714E+01
     -1.814  0.5680E+00  0.2771E+01
     -1.713  0.4694E+00  0.2818E+01
     -1.613  0.2526E+00  0.2843E+01
     -1.512  0.4678E+00  0.2890E+01
     -1.412  0.5836E+00  0.2949E+01
     -1.311  0.5750E+00  0.3007E+01
     -1.211  0.4297E+00  0.3050E+01
     -1.110  0.5676E+00  0.3107E+01
     -1.010  0.7231E+00  0.3180E+01
     -0.909  0.8316E+00  0.3263E+01
     -0.809  0.6267E+00  0.3326E+01
     -0.708  0.5101E+00  0.3378E+01
     -0.608  0.4854E+00  0.3426E+01
     -0.507  0.2353E+00  0.3450E+01
     -0.407  0.3599E-01  0.3454E+01
     -0.306  0.1214E+00  0.3466E+01
     -0.206  0.1241E+00  0.3478E+01
     -0.105  0.7969E-01  0.3486E+01
     -0.005  0.1121E+00  0.3498E+01
      0.096  0.1414E+00  0.3512E+01
      0.196  0.1122E+00  0.3523E+01
      0.297  0.1789E+00  0.3541E+01
      0.398  0.1426E+00  0.3555E+01
      0.498  0.1046E+00  0.3566E+01
      0.599  0.7528E-01  0.3574E+01
      0.699  0.3012E-01  0.3577E+01
      0.800  0.1451E-01  0.3578E+01
      0.900  0.6850E-01  0.3585E+01
      1.001  0.1171E+00  0.3597E+01
      1.101  0.1402E+00  0.3611E+01
      1.202  0.1179E+00  0.3623E+01
      1.302  0.1311E+00  0.3636E+01
      1.403  0.1677E+00  0.3653E+01
      1.503  0.1225E+00  0.3665E+01
      1.604  0.1264E+00  0.3678E+01
      1.704  0.7647E-01  0.3685E+01
      1.805  0.7263E-01  0.3693E+01
      1.905  0.8307E-01  0.3701E+01
      2.006  0.8686E-01  0.3710E+01
      2.106  0.1338E+00  0.3723E+01
      2.207  0.9598E-01  0.3733E+01
      2.307  0.7606E-01  0.3741E+01
      2.408  0.1388E+00  0.3754E+01
      2.508  0.1069E+00  0.3765E+01
      2.609  0.6891E-01  0.3772E+01
      2.710  0.8715E-01  0.3781E+01
      2.810  0.1223E+00  0.3793E+01
      2.911  0.1274E+00  0.3806E+01
      3.011  0.1444E+00  0.3821E+01
      3.112  0.7680E-01  0.3828E+01
      3.212  0.3959E-01  0.3832E+01
      3.313  0.8734E-01  0.3841E+01
      3.413  0.1895E+00  0.3860E+01
      3.514  0.8972E-01  0.3869E+01
      3.614  0.5973E-01  0.3875E+01
      3.715  0.6796E-01  0.3882E+01
      3.815  0.4590E-01  0.3887E+01
      3.916  0.9154E-02  0.3887E+01
      4.016  0.6478E-01  0.3894E+01
      4.117  0.8451E-01  0.3902E+01
      4.217  0.9117E-01  0.3912E+01
      4.318  0.4710E-01  0.3916E+01
      4.418  0.1393E-01  0.3918E+01
      4.519  0.2220E-01  0.3920E+01
      4.619  0.7917E-03  0.3920E+01
      4.720 -0.4806E-03  0.3920E+01
      4.821 -0.1008E-04  0.3920E+01
      4.921 -0.2269E-07  0.3920E+01
      5.022 -0.6409E-11  0.3920E+01
      5.122 -0.2375E-15  0.3920E+01
      5.223  0.0000E+00  0.3920E+01
      5.323  0.0000E+00  0.3920E+01
      5.424  0.0000E+00  0.3920E+01
      5.524  0.0000E+00  0.3920E+01
      5.625  0.0000E+00  0.3920E+01
      5.725  0.0000E+00  0.3920E+01
      5.826  0.0000E+00  0.3920E+01
