   67   67  200    1
  0.5111729E+02  0.1121440E-08  0.1121440E-08  0.3144560E-08  0.5000000E-15
  1.000000000000000E-004
  CAR 
 Pt                                      
    651     10    392
 
  0.0000000E+00  0.0000000E+00  0.0000000E+00  0.6250000E-01
    1      -22.960306   1.000000
    2      -11.321713   1.000000
    3      -10.199814   1.000000
    4       -8.889799   1.000000
    5       -8.428351   1.000000
    6       -8.426951   1.000000
    7       -8.424527   1.000000
    8       -8.403263   1.000000
    9       -8.401264   1.000000
   10       -8.396661   1.000000
   11       -7.867851   1.000000
   12       -7.762600   1.000000
   13       -7.692196   1.000000
   14       -7.457157   1.000000
   15       -7.453865   1.000000
   16       -7.446596   1.000000
   17       -7.363638   1.000000
   18       -7.363516   1.000000
   19       -7.361069   1.000000
   20       -7.359008   1.000000
   21       -7.358192   1.000000
   22       -7.339245   1.000000
   23       -7.295018   1.000000
   24       -7.283511   1.000000
   25       -7.278615   1.000000
   26       -6.973907   1.000000
   27       -6.854561   1.000000
   28       -6.850373   1.000000
   29       -6.815525   1.000000
   30       -6.599087   1.000000
   31       -6.593885   1.000000
   32       -6.592753   1.000000
   33       -6.590845   1.000000
   34       -6.590296   1.000000
   35       -6.587730   1.000000
   36       -6.587364   1.000000
   37       -6.585959   1.000000
   38       -6.583859   1.000000
   39       -6.579057   1.000000
   40       -6.574908   1.000000
   41       -6.572924   1.000000
   42       -6.556062   1.000000
   43       -6.552138   1.000000
   44       -6.546672   1.000000
   45       -6.501344   1.000000
   46       -6.498818   1.000000
   47       -6.495855   1.000000
   48       -6.459016   1.000000
   49       -6.452826   1.000000
   50       -6.432116   1.000000
   51       -6.425107   1.000000
   52       -6.403366   1.000000
   53       -6.385880   1.000000
   54       -6.357342   1.000000
   55       -6.249681   1.000000
   56       -6.244599   1.000000
   57       -6.242751   1.000000
   58       -6.231559   1.000000
   59       -6.221314   1.000000
   60       -6.203947   1.000000
   61       -6.115532   1.000000
   62       -6.114382   1.000000
   63       -6.107187   1.000000
   64       -6.103735   1.000000
   65       -6.099291   1.000000
   66       -6.063674   1.000000
   67       -5.778940   1.000000
   68       -5.774201   1.000000
   69       -5.765016   1.000000
   70       -5.760467   1.000000
   71       -5.759021   1.000000
   72       -5.754874   1.000000
   73       -5.707482   1.000000
   74       -5.692117   1.000000
   75       -5.681899   1.000000
   76       -5.640008   1.000000
   77       -5.638636   1.000000
   78       -5.633035   1.000000
   79       -5.631392   1.000000
   80       -5.627239   1.000000
   81       -5.599801   1.000000
   82       -5.597342   1.000000
   83       -5.585865   1.000000
   84       -5.583368   1.000000
   85       -5.558234   1.000000
   86       -5.555313   1.000000
   87       -5.548810   1.000000
   88       -5.223723   1.000000
   89       -5.223129   1.000000
   90       -5.220424   1.000000
   91       -5.208586   1.000000
   92       -5.204660   1.000000
   93       -5.199353   1.000000
   94       -5.167177   1.000000
   95       -5.161423   1.000000
   96       -5.159637   1.000000
   97       -5.139566   1.000000
   98       -5.137465   1.000000
   99       -5.136975   1.000000
  100       -5.132513   1.000000
  101       -5.119019   1.000000
  102       -5.117360   1.000000
  103       -5.114587   1.000000
  104       -5.108279   1.000000
  105       -5.104656   1.000000
  106       -5.011777   1.000000
  107       -5.008234   1.000000
  108       -4.990287   1.000000
  109       -4.988061   1.000000
  110       -4.984301   1.000000
  111       -4.963419   1.000000
  112       -4.748562   1.000000
  113       -4.743485   1.000000
  114       -4.741903   1.000000
  115       -4.739048   1.000000
  116       -4.737330   1.000000
  117       -4.727423   1.000000
  118       -4.704017   1.000000
  119       -4.692283   1.000000
  120       -4.690394   1.000000
  121       -4.596351   1.000000
  122       -4.589059   1.000000
  123       -4.581631   1.000000
  124       -4.579062   1.000000
  125       -4.572125   1.000000
  126       -4.571838   1.000000
  127       -4.559256   1.000000
  128       -4.556405   1.000000
  129       -4.552083   1.000000
  130       -4.538846   1.000000
  131       -4.478183   1.000000
  132       -4.402134   1.000000
  133       -4.399678   1.000000
  134       -4.388649   1.000000
  135       -4.387302   1.000000
  136       -4.387040   1.000000
  137       -4.381549   1.000000
  138       -4.378004   1.000000
  139       -4.373256   1.000000
  140       -4.296053   1.000000
  141       -4.293198   1.000000
  142       -4.226261   1.000000
  143       -4.214292   1.000000
  144       -4.208466   1.000000
  145       -4.204055   1.000000
  146       -4.195467   1.000000
  147       -4.184538   1.000000
  148       -4.147212   1.000000
  149       -4.139521   1.000000
  150       -4.132024   1.000000
  151       -4.040775   1.000000
  152       -3.999682   1.000000
  153       -3.993938   1.000000
  154       -3.979881   1.000000
  155       -3.975748   1.000000
  156       -3.968434   1.000000
  157       -3.959369   1.000000
  158       -3.954897   1.000000
  159       -3.901630   1.000000
  160       -3.900712   1.000000
  161       -3.895760   1.000000
  162       -3.889981   1.000000
  163       -3.884690   1.000000
  164       -3.884184   1.000000
  165       -3.840148   1.000000
  166       -3.832102   1.000000
  167       -3.817537   1.000000
  168       -3.816497   1.000000
  169       -3.812715   1.000000
  170       -3.807382   1.000000
  171       -3.801106   1.000000
  172       -3.798316   1.000000
  173       -3.796578   1.000000
  174       -3.790990   1.000000
  175       -3.788815   1.000000
  176       -3.785978   1.000000
  177       -3.784662   1.000000
  178       -3.780096   1.000000
  179       -3.779260   1.000000
  180       -3.770478   1.000000
  181       -3.767405   1.000000
  182       -3.761455   1.000000
  183       -3.725132   1.000000
  184       -3.720135   1.000000
  185       -3.651772   1.000000
  186       -3.642821   1.000000
  187       -3.638249   1.000000
  188       -3.632372   1.000000
  189       -3.619295   1.000000
  190       -3.614286   1.000000
  191       -3.607890   1.000000
  192       -3.591685   1.000000
  193       -3.590354   1.000000
  194       -3.578753   1.000000
  195       -3.536932   1.000000
  196       -3.530013   1.000000
  197       -3.523870   1.000000
  198       -3.506600   1.000000
  199       -3.495023   1.000000
  200       -3.492871   1.000000
  201       -3.477129   1.000000
  202       -3.470984   1.000000
  203       -3.464604   1.000000
  204       -3.452828   1.000000
  205       -3.395301   1.000000
  206       -3.380646   1.000000
  207       -3.140993   1.000000
  208       -3.129154   1.000000
  209       -3.127965   1.000000
  210       -3.108071   1.000000
  211       -3.104793   1.000000
  212       -3.087072   1.000000
  213       -3.067547   1.000000
  214       -3.053012   1.000000
  215       -3.047984   1.000000
  216       -3.045189   1.000000
  217       -3.009465   1.000000
  218       -3.002643   1.000000
  219       -2.997763   1.000000
  220       -2.991728   1.000000
  221       -2.987134   1.000000
  222       -2.944956   1.000000
  223       -2.932007   1.000000
  224       -2.915879   1.000000
  225       -2.873325   1.000000
  226       -2.867520   1.000000
  227       -2.865760   1.000000
  228       -2.860374   1.000000
  229       -2.856766   1.000000
  230       -2.834233   1.000000
  231       -2.749752   1.000000
  232       -2.747942   1.000000
  233       -2.722230   1.000000
  234       -2.719485   1.000000
  235       -2.718867   1.000000
  236       -2.654646   1.000000
  237       -2.533163   1.000000
  238       -2.526589   1.000000
  239       -2.510227   1.000000
  240       -2.491899   1.000000
  241       -2.491768   1.000000
  242       -2.490804   1.000000
  243       -2.468708   1.000000
  244       -2.445148   1.000000
  245       -2.415964   1.000000
  246       -2.395555   1.000000
  247       -2.389531   1.000000
  248       -2.374119   1.000000
  249       -2.365115   1.000000
  250       -2.363326   1.000000
  251       -2.338883   1.000000
  252       -2.336696   1.000000
  253       -2.327385   1.000000
  254       -2.323240   1.000000
  255       -2.322842   1.000000
  256       -2.321623   1.000000
  257       -2.283977   1.000000
  258       -2.231982   1.000000
  259       -2.229775   1.000000
  260       -2.223103   1.000000
  261       -2.213613   1.000000
  262       -2.194552   1.000000
  263       -2.191288   1.000000
  264       -2.129098   1.000000
  265       -2.119423   1.000000
  266       -2.096069   1.000000
  267       -2.092416   1.000000
  268       -2.084973   1.000000
  269       -2.075194   1.000000
  270       -2.071412   1.000000
  271       -2.062394   1.000000
  272       -2.052301   1.000000
  273       -2.043960   1.000000
  274       -2.040208   1.000000
  275       -2.034718   1.000000
  276       -2.032321   1.000000
  277       -1.955403   1.000000
  278       -1.949612   1.000000
  279       -1.927394   1.000000
  280       -1.918257   1.000000
  281       -1.913299   1.000000
  282       -1.906122   1.000000
  283       -1.852040   1.000000
  284       -1.847525   1.000000
  285       -1.814613   1.000000
  286       -1.718721   1.000000
  287       -1.625756   1.000000
  288       -1.618444   1.000000
  289       -1.516051   1.000000
  290       -1.507914   1.000000
  291       -1.432508   1.000000
  292       -1.428285   1.000000
  293       -1.414621   1.000000
  294       -1.413496   1.000000
  295       -1.408790   1.000000
  296       -1.395174   1.000000
  297       -1.392629   1.000000
  298       -1.228647   1.000057
  299       -1.211993   1.000146
  300       -1.209794   1.000164
  301       -1.206714   1.000194
  302       -1.204478   1.000218
  303       -1.195082   1.000353
  304       -1.125465   1.006699
  305       -1.119550   1.008140
  306       -1.106617   1.012059
  307       -1.042947   1.035456
  308       -1.041396   1.035436
  309       -1.013025   1.016127
  310       -0.951458   0.751387
  311       -0.936218   0.634376
  312       -0.927585   0.563063
  313       -0.888528   0.246932
  314       -0.878205   0.177539
  315       -0.862409   0.090568
  316       -0.859942   0.079233
  317       -0.857100   0.066936
  318       -0.850269   0.040683
  319       -0.848000   0.032975
  320       -0.846663   0.028667
  321       -0.840186   0.010147
  322       -0.836056   0.000294
  323       -0.829196  -0.012948
  324       -0.823894  -0.020742
  325       -0.818861  -0.026375
  326       -0.815940  -0.028931
  327       -0.711098  -0.005911
  328       -0.658413  -0.000676
  329       -0.656068  -0.000604
  330       -0.650627  -0.000464
  331       -0.624755  -0.000121
  332       -0.619450  -0.000090
  333       -0.617398  -0.000080
  334       -0.612993  -0.000062
  335       -0.605973  -0.000041
  336       -0.604915  -0.000039
  337       -0.604176  -0.000037
  338       -0.600174  -0.000029
  339       -0.597732  -0.000025
  340       -0.595078  -0.000022
  341       -0.591022  -0.000017
  342       -0.432775  -0.000000
  343       -0.431647  -0.000000
  344       -0.406322  -0.000000
  345       -0.383432  -0.000000
  346       -0.383361  -0.000000
  347       -0.371740  -0.000000
  348       -0.229281  -0.000000
  349        0.020043  -0.000000
  350        0.057245  -0.000000
  351        0.070020  -0.000000
  352        0.850995  -0.000000
  353        1.037992  -0.000000
  354        1.049261  -0.000000
  355        1.049916  -0.000000
  356        1.052828  -0.000000
  357        1.058626  -0.000000
  358        1.063913  -0.000000
  359        1.236918  -0.000000
  360        1.399309  -0.000000
  361        1.450383  -0.000000
  362        1.472708  -0.000000
  363        1.479559  -0.000000
  364        1.485015  -0.000000
  365        1.488747  -0.000000
  366        1.496082  -0.000000
  367        1.545302  -0.000000
  368        1.554835  -0.000000
  369        1.556396  -0.000000
  370        1.567505  -0.000000
  371        1.570439  -0.000000
  372        1.577309  -0.000000
  373        1.762982  -0.000000
  374        1.788289  -0.000000
  375        1.800495  -0.000000
  376        1.999367   0.000000
  377        2.081208   0.000000
  378        2.107033   0.000000
  379        2.238818   0.000000
  380        2.353658   0.000000
  381        2.701822   0.000000
  382        2.707684   0.000000
  383        2.716587   0.000000
  384        2.718868   0.000000
  385        2.868164   0.000000
  386        2.989134   0.000000
  387        3.734644   0.000000
  388        3.789326   0.000000
  389        3.805709   0.000000
  390        3.807361   0.000000
  391        3.823504   0.000000
  392        4.131199   0.000000
 
  0.2500000E+00  0.4280917E-16  0.0000000E+00  0.1250000E+00
    1      -22.960212   1.000000
    2      -11.321311   1.000000
    3      -10.067121   1.000000
    4       -9.095194   1.000000
    5       -8.759658   1.000000
    6       -8.670588   1.000000
    7       -8.664309   1.000000
    8       -8.021098   1.000000
    9       -8.002671   1.000000
   10       -7.915283   1.000000
   11       -7.834820   1.000000
   12       -7.774469   1.000000
   13       -7.635542   1.000000
   14       -7.569236   1.000000
   15       -7.505968   1.000000
   16       -7.482955   1.000000
   17       -7.458358   1.000000
   18       -7.363859   1.000000
   19       -7.353876   1.000000
   20       -7.245146   1.000000
   21       -7.193793   1.000000
   22       -7.187202   1.000000
   23       -7.145962   1.000000
   24       -7.119963   1.000000
   25       -7.112842   1.000000
   26       -6.974042   1.000000
   27       -6.936350   1.000000
   28       -6.920100   1.000000
   29       -6.813680   1.000000
   30       -6.792691   1.000000
   31       -6.790473   1.000000
   32       -6.766885   1.000000
   33       -6.756539   1.000000
   34       -6.739469   1.000000
   35       -6.685996   1.000000
   36       -6.629644   1.000000
   37       -6.616188   1.000000
   38       -6.598573   1.000000
   39       -6.592954   1.000000
   40       -6.583588   1.000000
   41       -6.563204   1.000000
   42       -6.558809   1.000000
   43       -6.531874   1.000000
   44       -6.498553   1.000000
   45       -6.490081   1.000000
   46       -6.484597   1.000000
   47       -6.461518   1.000000
   48       -6.454744   1.000000
   49       -6.445004   1.000000
   50       -6.429662   1.000000
   51       -6.401915   1.000000
   52       -6.386884   1.000000
   53       -6.377971   1.000000
   54       -6.361744   1.000000
   55       -6.354278   1.000000
   56       -6.327961   1.000000
   57       -6.320074   1.000000
   58       -6.265672   1.000000
   59       -6.207732   1.000000
   60       -6.202567   1.000000
   61       -6.164110   1.000000
   62       -6.157294   1.000000
   63       -6.113367   1.000000
   64       -6.088854   1.000000
   65       -6.074203   1.000000
   66       -5.986123   1.000000
   67       -5.975868   1.000000
   68       -5.972601   1.000000
   69       -5.961894   1.000000
   70       -5.943922   1.000000
   71       -5.910968   1.000000
   72       -5.878171   1.000000
   73       -5.874367   1.000000
   74       -5.681413   1.000000
   75       -5.678031   1.000000
   76       -5.659427   1.000000
   77       -5.650507   1.000000
   78       -5.646265   1.000000
   79       -5.602653   1.000000
   80       -5.593955   1.000000
   81       -5.540239   1.000000
   82       -5.528365   1.000000
   83       -5.505291   1.000000
   84       -5.503876   1.000000
   85       -5.475146   1.000000
   86       -5.456390   1.000000
   87       -5.381341   1.000000
   88       -5.369350   1.000000
   89       -5.343823   1.000000
   90       -5.327858   1.000000
   91       -5.318249   1.000000
   92       -5.306613   1.000000
   93       -5.268134   1.000000
   94       -5.255636   1.000000
   95       -5.244974   1.000000
   96       -5.243580   1.000000
   97       -5.197610   1.000000
   98       -5.177581   1.000000
   99       -5.148267   1.000000
  100       -5.144974   1.000000
  101       -5.102712   1.000000
  102       -5.084055   1.000000
  103       -5.060719   1.000000
  104       -5.055415   1.000000
  105       -5.045862   1.000000
  106       -5.035265   1.000000
  107       -4.990831   1.000000
  108       -4.964417   1.000000
  109       -4.951079   1.000000
  110       -4.907008   1.000000
  111       -4.783837   1.000000
  112       -4.780317   1.000000
  113       -4.772393   1.000000
  114       -4.765632   1.000000
  115       -4.715391   1.000000
  116       -4.663535   1.000000
  117       -4.659059   1.000000
  118       -4.655062   1.000000
  119       -4.642822   1.000000
  120       -4.615858   1.000000
  121       -4.599354   1.000000
  122       -4.578669   1.000000
  123       -4.564951   1.000000
  124       -4.562563   1.000000
  125       -4.555757   1.000000
  126       -4.550679   1.000000
  127       -4.543065   1.000000
  128       -4.532542   1.000000
  129       -4.515565   1.000000
  130       -4.499468   1.000000
  131       -4.469047   1.000000
  132       -4.457693   1.000000
  133       -4.447021   1.000000
  134       -4.419047   1.000000
  135       -4.406760   1.000000
  136       -4.388538   1.000000
  137       -4.384978   1.000000
  138       -4.360787   1.000000
  139       -4.332836   1.000000
  140       -4.320174   1.000000
  141       -4.297338   1.000000
  142       -4.241063   1.000000
  143       -4.223435   1.000000
  144       -4.208700   1.000000
  145       -4.202797   1.000000
  146       -4.160959   1.000000
  147       -4.149139   1.000000
  148       -4.138151   1.000000
  149       -4.127842   1.000000
  150       -4.123687   1.000000
  151       -4.114141   1.000000
  152       -4.108419   1.000000
  153       -4.092339   1.000000
  154       -4.065454   1.000000
  155       -4.049154   1.000000
  156       -4.000140   1.000000
  157       -3.992284   1.000000
  158       -3.983015   1.000000
  159       -3.968220   1.000000
  160       -3.963121   1.000000
  161       -3.959123   1.000000
  162       -3.942095   1.000000
  163       -3.933260   1.000000
  164       -3.902791   1.000000
  165       -3.887362   1.000000
  166       -3.880052   1.000000
  167       -3.872848   1.000000
  168       -3.863802   1.000000
  169       -3.849564   1.000000
  170       -3.838232   1.000000
  171       -3.822516   1.000000
  172       -3.809411   1.000000
  173       -3.791029   1.000000
  174       -3.774656   1.000000
  175       -3.748693   1.000000
  176       -3.737002   1.000000
  177       -3.727262   1.000000
  178       -3.716004   1.000000
  179       -3.704212   1.000000
  180       -3.698619   1.000000
  181       -3.688345   1.000000
  182       -3.683384   1.000000
  183       -3.644796   1.000000
  184       -3.629308   1.000000
  185       -3.626898   1.000000
  186       -3.613861   1.000000
  187       -3.611836   1.000000
  188       -3.609729   1.000000
  189       -3.579232   1.000000
  190       -3.572768   1.000000
  191       -3.566805   1.000000
  192       -3.561711   1.000000
  193       -3.539135   1.000000
  194       -3.519229   1.000000
  195       -3.456804   1.000000
  196       -3.452979   1.000000
  197       -3.438828   1.000000
  198       -3.428725   1.000000
  199       -3.402053   1.000000
  200       -3.390272   1.000000
  201       -3.328138   1.000000
  202       -3.318447   1.000000
  203       -3.316052   1.000000
  204       -3.287214   1.000000
  205       -3.236692   1.000000
  206       -3.222177   1.000000
  207       -3.219062   1.000000
  208       -3.213195   1.000000
  209       -3.187025   1.000000
  210       -3.178239   1.000000
  211       -3.127124   1.000000
  212       -3.067164   1.000000
  213       -3.063864   1.000000
  214       -3.038680   1.000000
  215       -3.027545   1.000000
  216       -3.021164   1.000000
  217       -2.997300   1.000000
  218       -2.989021   1.000000
  219       -2.972142   1.000000
  220       -2.959050   1.000000
  221       -2.943873   1.000000
  222       -2.941606   1.000000
  223       -2.933025   1.000000
  224       -2.930081   1.000000
  225       -2.901554   1.000000
  226       -2.892312   1.000000
  227       -2.874554   1.000000
  228       -2.845879   1.000000
  229       -2.817328   1.000000
  230       -2.809432   1.000000
  231       -2.758571   1.000000
  232       -2.702056   1.000000
  233       -2.686699   1.000000
  234       -2.620967   1.000000
  235       -2.615858   1.000000
  236       -2.589511   1.000000
  237       -2.528282   1.000000
  238       -2.509749   1.000000
  239       -2.493587   1.000000
  240       -2.479452   1.000000
  241       -2.472139   1.000000
  242       -2.465702   1.000000
  243       -2.429574   1.000000
  244       -2.416558   1.000000
  245       -2.406164   1.000000
  246       -2.397626   1.000000
  247       -2.350187   1.000000
  248       -2.322717   1.000000
  249       -2.303136   1.000000
  250       -2.277833   1.000000
  251       -2.264828   1.000000
  252       -2.256360   1.000000
  253       -2.244720   1.000000
  254       -2.241350   1.000000
  255       -2.236296   1.000000
  256       -2.162984   1.000000
  257       -2.116410   1.000000
  258       -2.104592   1.000000
  259       -2.089949   1.000000
  260       -2.069513   1.000000
  261       -2.066268   1.000000
  262       -2.058464   1.000000
  263       -2.048556   1.000000
  264       -2.036228   1.000000
  265       -2.020953   1.000000
  266       -2.015428   1.000000
  267       -2.003692   1.000000
  268       -1.975532   1.000000
  269       -1.972905   1.000000
  270       -1.945504   1.000000
  271       -1.939239   1.000000
  272       -1.926443   1.000000
  273       -1.917702   1.000000
  274       -1.906654   1.000000
  275       -1.899122   1.000000
  276       -1.866501   1.000000
  277       -1.846482   1.000000
  278       -1.837806   1.000000
  279       -1.806772   1.000000
  280       -1.789396   1.000000
  281       -1.781687   1.000000
  282       -1.772289   1.000000
  283       -1.768931   1.000000
  284       -1.754854   1.000000
  285       -1.743255   1.000000
  286       -1.647794   1.000000
  287       -1.617887   1.000000
  288       -1.600542   1.000000
  289       -1.594628   1.000000
  290       -1.532985   1.000000
  291       -1.505486   1.000000
  292       -1.500675   1.000000
  293       -1.489193   1.000000
  294       -1.467471   1.000000
  295       -1.457265   1.000000
  296       -1.412286   1.000000
  297       -1.406458   1.000000
  298       -1.394348   1.000000
  299       -1.385466   1.000000
  300       -1.363716   1.000000
  301       -1.304613   1.000000
  302       -1.273927   1.000003
  303       -1.243788   1.000023
  304       -1.198383   1.000299
  305       -1.195660   1.000343
  306       -1.190995   1.000433
  307       -1.146752   1.003083
  308       -1.133718   1.005026
  309       -1.089362   1.018874
  310       -1.068391   1.028411
  311       -1.046435   1.035241
  312       -1.035578   1.034627
  313       -1.021547   1.026555
  314       -1.010309   1.011741
  315       -0.999743   0.989102
  316       -0.993405   0.970852
  317       -0.972042   0.880524
  318       -0.963620   0.832399
  319       -0.956410   0.785910
  320       -0.943786   0.694267
  321       -0.937929   0.648177
  322       -0.918725   0.488277
  323       -0.894195   0.288639
  324       -0.881094   0.196033
  325       -0.869700   0.127660
  326       -0.854131   0.054955
  327       -0.851214   0.044039
  328       -0.822159  -0.022868
  329       -0.764900  -0.025282
  330       -0.760235  -0.023123
  331       -0.742281  -0.015280
  332       -0.738195  -0.013706
  333       -0.725680  -0.009531
  334       -0.721697  -0.008412
  335       -0.718659  -0.007626
  336       -0.686034  -0.002289
  337       -0.655340  -0.000584
  338       -0.649465  -0.000438
  339       -0.637378  -0.000237
  340       -0.614716  -0.000069
  341       -0.606342  -0.000042
  342       -0.582220  -0.000010
  343       -0.568786  -0.000004
  344       -0.554988  -0.000002
  345       -0.523504  -0.000000
  346       -0.324753  -0.000000
  347       -0.265927  -0.000000
  348       -0.184932  -0.000000
  349        0.043272  -0.000000
  350        0.046169  -0.000000
  351        0.261304  -0.000000
  352        0.265916  -0.000000
  353        0.273271  -0.000000
  354        0.410134  -0.000000
  355        0.484592  -0.000000
  356        0.485907  -0.000000
  357        0.661346  -0.000000
  358        0.977073  -0.000000
  359        1.010314  -0.000000
  360        1.019966  -0.000000
  361        1.155685  -0.000000
  362        1.181076  -0.000000
  363        1.284838  -0.000000
  364        1.327732  -0.000000
  365        1.352084  -0.000000
  366        1.363689  -0.000000
  367        1.468779  -0.000000
  368        1.488414  -0.000000
  369        1.619028  -0.000000
  370        1.721857  -0.000000
  371        1.863561   0.000000
  372        1.877985   0.000000
  373        2.045463   0.000000
  374        2.105315   0.000000
  375        2.111723   0.000000
  376        2.280782   0.000000
  377        2.339745   0.000000
  378        2.653274   0.000000
  379        2.716872   0.000000
  380        2.822779   0.000000
  381        2.934625   0.000000
  382        2.942200   0.000000
  383        2.996451   0.000000
  384        3.022287   0.000000
  385        3.305515   0.000000
  386        3.389997   0.000000
  387        3.397159   0.000000
  388        3.413657   0.000000
  389        3.697000   0.000000
  390        4.174446   0.000000
  391        4.234624   0.000000
  392        4.454982   0.000000
 
  0.5000000E+00  0.8561833E-16  0.0000000E+00  0.6250000E-01
    1      -22.960230   1.000000
    2      -11.320997   1.000000
    3       -9.696375   1.000000
    4       -9.668511   1.000000
    5       -8.756532   1.000000
    6       -8.750061   1.000000
    7       -8.396966   1.000000
    8       -8.387838   1.000000
    9       -7.859546   1.000000
   10       -7.552459   1.000000
   11       -7.547147   1.000000
   12       -7.531980   1.000000
   13       -7.519320   1.000000
   14       -7.486226   1.000000
   15       -7.469126   1.000000
   16       -7.465228   1.000000
   17       -7.456708   1.000000
   18       -7.271561   1.000000
   19       -7.268156   1.000000
   20       -7.225619   1.000000
   21       -7.214519   1.000000
   22       -7.158041   1.000000
   23       -7.135025   1.000000
   24       -7.122571   1.000000
   25       -7.110465   1.000000
   26       -7.104197   1.000000
   27       -7.089174   1.000000
   28       -6.997393   1.000000
   29       -6.942334   1.000000
   30       -6.931203   1.000000
   31       -6.919814   1.000000
   32       -6.905323   1.000000
   33       -6.820909   1.000000
   34       -6.814277   1.000000
   35       -6.802242   1.000000
   36       -6.742132   1.000000
   37       -6.653561   1.000000
   38       -6.643536   1.000000
   39       -6.587646   1.000000
   40       -6.579468   1.000000
   41       -6.569332   1.000000
   42       -6.554216   1.000000
   43       -6.541266   1.000000
   44       -6.506572   1.000000
   45       -6.468161   1.000000
   46       -6.456468   1.000000
   47       -6.453568   1.000000
   48       -6.437657   1.000000
   49       -6.419318   1.000000
   50       -6.412206   1.000000
   51       -6.392779   1.000000
   52       -6.339571   1.000000
   53       -6.333855   1.000000
   54       -6.309765   1.000000
   55       -6.304362   1.000000
   56       -6.290937   1.000000
   57       -6.284853   1.000000
   58       -6.278844   1.000000
   59       -6.264678   1.000000
   60       -6.239997   1.000000
   61       -6.237937   1.000000
   62       -6.206983   1.000000
   63       -6.197795   1.000000
   64       -6.099770   1.000000
   65       -6.094596   1.000000
   66       -6.093529   1.000000
   67       -6.067059   1.000000
   68       -6.057054   1.000000
   69       -6.050794   1.000000
   70       -6.022075   1.000000
   71       -6.003583   1.000000
   72       -5.918493   1.000000
   73       -5.901940   1.000000
   74       -5.684098   1.000000
   75       -5.678304   1.000000
   76       -5.672307   1.000000
   77       -5.667486   1.000000
   78       -5.643479   1.000000
   79       -5.636221   1.000000
   80       -5.608116   1.000000
   81       -5.603328   1.000000
   82       -5.571404   1.000000
   83       -5.560925   1.000000
   84       -5.552206   1.000000
   85       -5.536347   1.000000
   86       -5.534212   1.000000
   87       -5.512952   1.000000
   88       -5.358673   1.000000
   89       -5.356299   1.000000
   90       -5.348188   1.000000
   91       -5.337958   1.000000
   92       -5.309090   1.000000
   93       -5.300672   1.000000
   94       -5.278247   1.000000
   95       -5.275607   1.000000
   96       -5.240454   1.000000
   97       -5.209640   1.000000
   98       -5.194764   1.000000
   99       -5.170210   1.000000
  100       -5.133586   1.000000
  101       -5.100969   1.000000
  102       -5.021198   1.000000
  103       -5.010955   1.000000
  104       -5.000927   1.000000
  105       -4.990042   1.000000
  106       -4.965658   1.000000
  107       -4.958111   1.000000
  108       -4.947871   1.000000
  109       -4.934048   1.000000
  110       -4.930214   1.000000
  111       -4.914442   1.000000
  112       -4.788119   1.000000
  113       -4.764787   1.000000