       N       E                     dE             d eps       ncg     rms          rms(c)
DAV:   1     0.424963833741E+04    0.42496E+04   -0.23789E+05  7960   0.112E+03
DAV:   2    -0.268327168210E+02   -0.42765E+04   -0.39434E+04  9832   0.255E+02
DAV:   3    -0.396648797777E+03   -0.36982E+03   -0.33858E+03  9088   0.720E+01
DAV:   4    -0.414469273635E+03   -0.17820E+02   -0.16525E+02 10720   0.141E+01
DAV:   5    -0.414975638340E+03   -0.50636E+00   -0.49756E+00  9872   0.244E+00    0.827E+01
RMM:   6    -0.402668504582E+03    0.12307E+02   -0.78493E+01  7868   0.139E+01    0.615E+01
RMM:   7    -0.477381167886E+03   -0.74713E+02   -0.14875E+02  7849   0.143E+01    0.768E+01
RMM:   8    -0.395762971130E+03    0.81618E+02   -0.57099E+01  7873   0.967E+00    0.264E+01
RMM:   9    -0.433266754720E+03   -0.37504E+02   -0.42163E+01  7857   0.753E+00    0.558E+01
RMM:  10    -0.410352992481E+03    0.22914E+02   -0.17833E+01  7861   0.464E+00    0.429E+01
RMM:  11    -0.391481105348E+03    0.18872E+02   -0.59955E+00  7872   0.304E+00    0.182E+01
RMM:  12    -0.389718634064E+03    0.17625E+01   -0.37516E+00  7864   0.240E+00    0.147E+01
RMM:  13    -0.388637727738E+03    0.10809E+01   -0.13814E+00  7870   0.140E+00    0.883E+00
RMM:  14    -0.388195478619E+03    0.44225E+00   -0.65845E-01  7872   0.973E-01    0.643E+00
RMM:  15    -0.388087910555E+03    0.10757E+00   -0.41291E-01  7870   0.773E-01    0.509E+00
RMM:  16    -0.387969345931E+03    0.11856E+00   -0.13172E-01  7873   0.450E-01    0.305E+00
RMM:  17    -0.387931515160E+03    0.37831E-01   -0.49767E-02  7865   0.293E-01    0.206E+00
RMM:  18    -0.387941766472E+03   -0.10251E-01   -0.46130E-02  7871   0.272E-01    0.195E+00
RMM:  19    -0.387930897045E+03    0.10869E-01   -0.40142E-02  7877   0.252E-01    0.177E+00
RMM:  20    -0.387915451046E+03    0.15446E-01   -0.17701E-02  7868   0.165E-01    0.823E-01
RMM:  21    -0.387911212662E+03    0.42384E-02   -0.30417E-03  7866   0.697E-02    0.375E-01
RMM:  22    -0.387910370049E+03    0.84261E-03   -0.60405E-04  7880   0.325E-02    0.245E-01
RMM:  23    -0.387910753063E+03   -0.38301E-03   -0.64992E-04  7875   0.310E-02    0.308E-01
RMM:  24    -0.387910377052E+03    0.37601E-03   -0.35308E-04  7842   0.233E-02    0.167E-01
RMM:  25    -0.387910328758E+03    0.48294E-04   -0.17200E-04  7830   0.163E-02    0.118E-01
RMM:  26    -0.387910341954E+03   -0.13196E-04   -0.14075E-04  7792   0.136E-02    0.776E-02
RMM:  27    -0.387910369070E+03   -0.27116E-04   -0.44312E-05  5790   0.808E-03    0.498E-02
RMM:  28    -0.387910454237E+03   -0.85167E-04   -0.34588E-05  5233   0.687E-03    0.502E-02
RMM:  29    -0.387910547687E+03   -0.93450E-04   -0.26540E-05  4749   0.612E-03    0.376E-02
RMM:  30    -0.387910609873E+03   -0.62185E-04   -0.11365E-05  4347   0.423E-03    0.247E-02
RMM:  31    -0.387910672713E+03   -0.62840E-04   -0.48497E-06  4242   0.277E-03    0.142E-02
RMM:  32    -0.387910753419E+03   -0.80706E-04   -0.40904E-06  4250   0.236E-03    0.109E-02
RMM:  33    -0.387910921031E+03   -0.16761E-03   -0.10084E-05  4491   0.307E-03    0.171E-02
RMM:  34    -0.387910998704E+03   -0.77673E-04   -0.50762E-06  3960   0.216E-03    0.107E-02
RMM:  35    -0.387911024349E+03   -0.25645E-04   -0.14876E-06  2130   0.133E-03    0.808E-03
RMM:  36    -0.387911101428E+03   -0.77079E-04   -0.29939E-06  3430   0.169E-03    0.498E-03
RMM:  37    -0.387911161534E+03   -0.60106E-04   -0.33992E-06  3292   0.169E-03    0.671E-03
RMM:  38    -0.387911203786E+03   -0.42252E-04   -0.22497E-06  2747   0.149E-03    0.306E-03
RMM:  39    -0.387911224722E+03   -0.20936E-04   -0.11149E-06  1992   0.121E-03    0.156E-03
RMM:  40    -0.387911253239E+03   -0.28517E-04   -0.11602E-06  2507   0.134E-03    0.196E-03
RMM:  41    -0.387911268137E+03   -0.14898E-04   -0.46142E-07  1607   0.111E-03    0.147E-03
RMM:  42    -0.387911281280E+03   -0.13143E-04   -0.51958E-07  1839   0.109E-03    0.851E-04
RMM:  43    -0.387911289294E+03   -0.80140E-05   -0.24996E-07  1253   0.947E-04
   1 F= -.38791129E+03 E0= -.38789573E+03  d E =-.387911E+03
       N       E                     dE             d eps       ncg     rms          rms(c)
DAV:   1    -0.386204959111E+03    0.17063E+01   -0.53870E+02  7840   0.265E+01    0.559E+00
RMM:   2    -0.387320155983E+03   -0.11152E+01   -0.15499E+01  7899   0.414E+00    0.665E+00
RMM:   3    -0.389682674497E+03   -0.23625E+01   -0.16668E+00  8040   0.137E+00    0.181E+01
RMM:   4    -0.387340789603E+03    0.23419E+01   -0.63027E-01  7910   0.958E-01    0.610E+00
RMM:   5    -0.387063272036E+03    0.27752E+00   -0.25692E-01  7894   0.636E-01    0.344E+00
RMM:   6    -0.387066496158E+03   -0.32241E-02   -0.15788E-01  7896   0.470E-01    0.372E+00
RMM:   7    -0.387013604349E+03    0.52892E-01   -0.95429E-02  7909   0.393E-01    0.257E+00
RMM:   8    -0.387008130747E+03    0.54736E-02   -0.76771E-02  7887   0.348E-01    0.212E+00
RMM:   9    -0.386979504030E+03    0.28627E-01   -0.19072E-02  7888   0.176E-01    0.837E-01
RMM:  10    -0.386975894355E+03    0.36097E-02   -0.66943E-03  7900   0.106E-01    0.492E-01
RMM:  11    -0.386977066060E+03   -0.11717E-02   -0.26018E-03  7899   0.650E-02    0.481E-01
RMM:  12    -0.386977341951E+03   -0.27589E-03   -0.14689E-03  7872   0.504E-02    0.236E-01
RMM:  13    -0.386977745944E+03   -0.40399E-03   -0.61822E-04  7865   0.319E-02    0.113E-01
RMM:  14    -0.386979088511E+03   -0.13426E-02   -0.43473E-04  7844   0.257E-02    0.123E-01
RMM:  15    -0.386979808053E+03   -0.71954E-03   -0.21874E-04  7788   0.183E-02    0.746E-02
RMM:  16    -0.386980336961E+03   -0.52891E-03   -0.10855E-04  7134   0.127E-02    0.497E-02
RMM:  17    -0.386981492293E+03   -0.11553E-02   -0.24952E-04  7245   0.171E-02    0.395E-02
RMM:  18    -0.386982156430E+03   -0.66414E-03   -0.15138E-04  6699   0.126E-02    0.430E-02
RMM:  19    -0.386982479911E+03   -0.32348E-03   -0.61754E-05  5569   0.804E-03    0.308E-02
RMM:  20    -0.386982810603E+03   -0.33069E-03   -0.59367E-05  5550   0.754E-03    0.197E-02
RMM:  21    -0.386983037965E+03   -0.22736E-03   -0.37445E-05  5134   0.566E-03    0.119E-02
RMM:  22    -0.386983160287E+03   -0.12232E-03   -0.15364E-05  4562   0.372E-03    0.115E-02
RMM:  23    -0.386983281774E+03   -0.12149E-03   -0.13434E-05  4524   0.339E-03    0.155E-02
RMM:  24    -0.386983377368E+03   -0.95594E-04   -0.12106E-05  4356   0.308E-03    0.576E-03
RMM:  25    -0.386983425922E+03   -0.48554E-04   -0.47525E-06  3379   0.205E-03    0.562E-03
RMM:  26    -0.386983476961E+03   -0.51039E-04   -0.41017E-06  3492   0.195E-03    0.379E-03
RMM:  27    -0.386983495491E+03   -0.18531E-04   -0.12397E-06  2156   0.128E-03    0.334E-03
RMM:  28    -0.386983525825E+03   -0.30334E-04   -0.12537E-06  2876   0.146E-03    0.439E-03
RMM:  29    -0.386983557147E+03   -0.31322E-04   -0.14553E-06  3262   0.161E-03    0.206E-03
RMM:  30    -0.386983567176E+03   -0.10029E-04   -0.38548E-07  1500   0.104E-03    0.166E-03
RMM:  31    -0.386983578730E+03   -0.11554E-04   -0.48963E-07  1715   0.115E-03    0.924E-04
RMM:  32    -0.386983584309E+03   -0.55791E-05   -0.20344E-07  1253   0.106E-03
   2 F= -.38698358E+03 E0= -.38696785E+03  d E =0.927705E+00
       N       E                     dE             d eps       ncg     rms          rms(c)
DAV:   1    -0.387550115066E+03   -0.56654E+00   -0.28534E+02  7856   0.256E+01    0.695E+00
RMM:   2    -0.389714610831E+03   -0.21645E+01   -0.15332E+01  7913   0.328E+00    0.107E+01
RMM:   3    -0.393765194260E+03   -0.40506E+01   -0.18442E+00  7889   0.152E+00    0.247E+01
RMM:   4    -0.388372426241E+03    0.53928E+01   -0.91330E-01  7904   0.116E+00    0.288E+00
RMM:   5    -0.388473767754E+03   -0.10134E+00   -0.25550E-01  7903   0.623E-01    0.527E+00
RMM:   6    -0.388317286013E+03    0.15648E+00   -0.10165E-01  7895   0.405E-01    0.211E+00
RMM:   7    -0.388308380549E+03    0.89055E-02   -0.67503E-02  7879   0.329E-01    0.192E+00
RMM:   8    -0.388292426177E+03    0.15954E-01   -0.57003E-02  7881   0.297E-01    0.154E+00
RMM:   9    -0.388277318491E+03    0.15108E-01   -0.16198E-02  7890   0.164E-01    0.642E-01
RMM:  10    -0.388275351113E+03    0.19674E-02   -0.46528E-03  7884   0.871E-02    0.391E-01
RMM:  11    -0.388274945249E+03    0.40586E-03   -0.19781E-03  7880   0.560E-02    0.339E-01
RMM:  12    -0.388274396170E+03    0.54908E-03   -0.11677E-03  7886   0.446E-02    0.237E-01
RMM:  13    -0.388274269244E+03    0.12693E-03   -0.42695E-04  7858   0.260E-02    0.148E-01
RMM:  14    -0.388274533119E+03   -0.26388E-03   -0.28744E-04  7836   0.206E-02    0.137E-01
RMM:  15    -0.388274709112E+03   -0.17599E-03   -0.18406E-04  7832   0.173E-02    0.876E-02
RMM:  16    -0.388274980429E+03   -0.27132E-03   -0.82281E-05  7058   0.111E-02    0.577E-02
RMM:  17    -0.388275214800E+03   -0.23437E-03   -0.38696E-05  5358   0.755E-03    0.575E-02
RMM:  18    -0.388275526890E+03   -0.31209E-03   -0.40815E-05  5337   0.744E-03    0.455E-02
RMM:  19    -0.388275825581E+03   -0.29869E-03   -0.35011E-05  4974   0.679E-03    0.289E-02
RMM:  20    -0.388275998107E+03   -0.17253E-03   -0.13960E-05  4477   0.437E-03    0.202E-02
RMM:  21    -0.388276251853E+03   -0.25375E-03   -0.16553E-05  4577   0.436E-03    0.227E-02
RMM:  22    -0.388276470432E+03   -0.21858E-03   -0.14385E-05  4513   0.387E-03    0.200E-02
RMM:  23    -0.388276592127E+03   -0.12170E-03   -0.73592E-06  4325   0.278E-03    0.118E-02
RMM:  24    -0.388276741861E+03   -0.14973E-03   -0.62010E-06  4127   0.235E-03    0.831E-03
RMM:  25    -0.388276906313E+03   -0.16445E-03   -0.82009E-06  4250   0.244E-03    0.537E-03
RMM:  26    -0.388276964876E+03   -0.58562E-04   -0.25829E-06  2558   0.151E-03    0.411E-03
RMM:  27    -0.388277030666E+03   -0.65791E-04   -0.19620E-06  2740   0.149E-03    0.272E-03
RMM:  28    -0.388277066534E+03   -0.35867E-04   -0.10597E-06  2221   0.125E-03    0.356E-03
RMM:  29    -0.388277119623E+03   -0.53090E-04   -0.15266E-06  2819   0.148E-03    0.202E-03
RMM:  30    -0.388277144877E+03   -0.25254E-04   -0.98575E-07  2142   0.125E-03    0.105E-03
RMM:  31    -0.388277161626E+03   -0.16748E-04   -0.44705E-07  1587   0.107E-03    0.996E-04
RMM:  32    -0.388277177650E+03   -0.16025E-04   -0.47734E-07  1697   0.111E-03    0.646E-04
RMM:  33    -0.388277183714E+03   -0.60634E-05   -0.11731E-07   896   0.940E-04
   3 F= -.38827718E+03 E0= -.38826135E+03  d E =-.365894E+00
       N       E                     dE             d eps       ncg     rms          rms(c)
DAV:   1    -0.388787381781E+03   -0.51020E+00   -0.12194E+02  7840   0.156E+01    0.387E+00
RMM:   2    -0.389055057033E+03   -0.26768E+00   -0.31989E+00  7904   0.212E+00    0.398E+00
RMM:   3    -0.390079795961E+03   -0.10247E+01   -0.40429E-01  7950   0.737E-01    0.121E+01
RMM:   4    -0.389062493049E+03    0.10173E+01   -0.23722E-01  7910   0.588E-01    0.361E+00
RMM:   5    -0.389033338187E+03    0.29155E-01   -0.15425E-01  7900   0.488E-01    0.340E+00
RMM:   6    -0.388997286832E+03    0.36051E-01   -0.94744E-02  7891   0.387E-01    0.236E+00
RMM:   7    -0.388973571407E+03    0.23715E-01   -0.45070E-02  7890   0.266E-01    0.145E+00
RMM:   8    -0.388964288356E+03    0.92831E-02   -0.23083E-02  7888   0.193E-01    0.999E-01
RMM:   9    -0.388958408055E+03    0.58803E-02   -0.60481E-03  7891   0.100E-01    0.526E-01
RMM:  10    -0.388957844711E+03    0.56334E-03   -0.20317E-03  7882   0.567E-02    0.432E-01
RMM:  11    -0.388956993631E+03    0.85108E-03   -0.85949E-04  7885   0.378E-02    0.209E-01
RMM:  12    -0.388956901040E+03    0.92592E-04   -0.36191E-04  7850   0.242E-02    0.104E-01
RMM:  13    -0.388957005662E+03   -0.10462E-03   -0.11805E-04  7783   0.135E-02    0.821E-02
RMM:  14    -0.388957104192E+03   -0.98530E-04   -0.57993E-05  6525   0.957E-03    0.613E-02
RMM:  15    -0.388957198540E+03   -0.94348E-04   -0.25981E-05  4638   0.691E-03    0.221E-02
RMM:  16    -0.388957294918E+03   -0.96378E-04   -0.11911E-05  4364   0.469E-03    0.155E-02
RMM:  17    -0.388957428719E+03   -0.13380E-03   -0.11193E-05  4423   0.405E-03    0.158E-02
RMM:  18    -0.388957501503E+03   -0.72784E-04   -0.57904E-06  4268   0.270E-03    0.130E-02
RMM:  19    -0.388957549871E+03   -0.48368E-04   -0.32199E-06  3847   0.202E-03    0.882E-03
RMM:  20    -0.388957656648E+03   -0.10678E-03   -0.85347E-06  4311   0.282E-03    0.644E-03
RMM:  21    -0.388957714750E+03   -0.58102E-04   -0.49705E-06  3570   0.210E-03    0.403E-03
RMM:  22    -0.388957763981E+03   -0.49231E-04   -0.42545E-06  3527   0.196E-03    0.554E-03
RMM:  23    -0.388957796575E+03   -0.32594E-04   -0.29550E-06  2890   0.163E-03    0.340E-03
RMM:  24    -0.388957815968E+03   -0.19393E-04   -0.16963E-06  2271   0.138E-03    0.189E-03
RMM:  25    -0.388957841862E+03   -0.25894E-04   -0.28343E-06  3121   0.167E-03    0.157E-03
RMM:  26    -0.388957848807E+03   -0.69446E-05   -0.64261E-07  1491   0.107E-03
   4 F= -.38895785E+03 E0= -.38894250E+03  d E =-.680665E+00
       N       E                     dE             d eps       ncg     rms          rms(c)
DAV:   1    -0.388963355587E+03   -0.55137E-02   -0.14477E+00  8000   0.179E+00    0.364E-01
RMM:   2    -0.388966425996E+03   -0.30704E-02   -0.35349E-02  7913   0.225E-01    0.297E-01
RMM:   3    -0.388977083292E+03   -0.10657E-01   -0.39398E-03  7940   0.740E-02    0.125E+00
RMM:   4    -0.388966649507E+03    0.10434E-01   -0.21318E-03  7899   0.552E-02    0.345E-01
RMM:   5    -0.388966605937E+03    0.43570E-04   -0.13948E-03  7883   0.466E-02    0.340E-01
RMM:   6    -0.388966080782E+03    0.52516E-03   -0.74124E-04  7877   0.342E-02    0.174E-01
RMM:   7    -0.388965964942E+03    0.11584E-03   -0.32207E-04  7854   0.228E-02    0.110E-01
RMM:   8    -0.388965885734E+03    0.79208E-04   -0.11647E-04  7805   0.141E-02    0.554E-02
RMM:   9    -0.388965866473E+03    0.19261E-04   -0.24042E-05  4472   0.670E-03    0.272E-02
RMM:  10    -0.388965868368E+03   -0.18950E-05   -0.10764E-05  4184   0.455E-03
   5 F= -.38896587E+03 E0= -.38895056E+03  d E =-.688685E+00
       N       E                     dE             d eps       ncg     rms          rms(c)
DAV:   1    -0.388921609107E+03    0.44257E-01   -0.77547E+01  7840   0.124E+01    0.390E+00
RMM:   2    -0.389251406992E+03   -0.32980E+00   -0.40355E+00  7905   0.178E+00    0.270E+00
RMM:   3    -0.389615555040E+03   -0.36415E+00   -0.32577E-01  7882   0.649E-01    0.786E+00
RMM:   4    -0.389278717022E+03    0.33684E+00   -0.13311E-01  7908   0.423E-01    0.416E+00
RMM:   5    -0.389220152413E+03    0.58565E-01   -0.13140E-01  7882   0.440E-01    0.332E+00
RMM:   6    -0.389141994224E+03    0.78158E-01   -0.64337E-02  7888   0.319E-01    0.150E+00
RMM:   7    -0.389134434503E+03    0.75597E-02   -0.28266E-02  7888   0.212E-01    0.133E+00
RMM:   8    -0.389122270011E+03    0.12164E-01   -0.12551E-02  7889   0.145E-01    0.502E-01
RMM:   9    -0.389121292977E+03    0.97703E-03   -0.47844E-03  7884   0.862E-02    0.470E-01
RMM:  10    -0.389120012388E+03    0.12806E-02   -0.14662E-03  7877   0.503E-02    0.277E-01
RMM:  11    -0.389119888596E+03    0.12379E-03   -0.63052E-04  7875   0.320E-02    0.244E-01
RMM:  12    -0.389119779292E+03    0.10930E-03   -0.56204E-04  7878   0.293E-02    0.140E-01
RMM:  13    -0.389119784265E+03   -0.49732E-05   -0.25658E-04  7848   0.202E-02    0.669E-02
RMM:  14    -0.389120036838E+03   -0.25257E-03   -0.11552E-04  7446   0.126E-02    0.720E-02
RMM:  15    -0.389120214537E+03   -0.17770E-03   -0.57221E-05  5995   0.901E-03    0.536E-02
RMM:  16    -0.389120315191E+03   -0.10065E-03   -0.21535E-05  4540   0.597E-03    0.246E-02
RMM:  17    -0.389120581138E+03   -0.26595E-03   -0.26377E-05  4662   0.555E-03    0.242E-02
RMM:  18    -0.389120829456E+03   -0.24832E-03   -0.22703E-05  4601   0.494E-03    0.130E-02
RMM:  19    -0.389120985707E+03   -0.15625E-03   -0.10648E-05  4416   0.337E-03    0.192E-02
RMM:  20    -0.389121140130E+03   -0.15442E-03   -0.89919E-06  4389   0.293E-03    0.127E-02
RMM:  21    -0.389121242981E+03   -0.10285E-03   -0.49368E-06  3957   0.220E-03    0.641E-03
RMM:  22    -0.389121401125E+03   -0.15814E-03   -0.57914E-06  3809   0.214E-03    0.741E-03
RMM:  23    -0.389121502600E+03   -0.10148E-03   -0.41796E-06  3161   0.182E-03    0.529E-03
RMM:  24    -0.389121547189E+03   -0.44588E-04   -0.16856E-06  2434   0.138E-03    0.526E-03
RMM:  25    -0.389121599262E+03   -0.52073E-04   -0.15900E-06  2573   0.137E-03    0.289E-03
RMM:  26    -0.389121626232E+03   -0.26970E-04   -0.59428E-07  1648   0.113E-03    0.169E-03
RMM:  27    -0.389121679761E+03   -0.53529E-04   -0.13812E-06  2979   0.149E-03    0.226E-03
RMM:  28    -0.389121701030E+03   -0.21269E-04   -0.48143E-07  1581   0.108E-03    0.179E-03
RMM:  29    -0.389121711319E+03   -0.10290E-04   -0.35651E-07  1357   0.103E-03    0.147E-03
RMM:  30    -0.389121720161E+03   -0.88414E-05   -0.28460E-07  1258   0.101E-03
   6 F= -.38912172E+03 E0= -.38910659E+03  d E =-.155852E+00
       N       E                     dE             d eps       ncg     rms          rms(c)
DAV:   1    -0.389309982421E+03   -0.18827E+00   -0.12301E+01  7872   0.375E+00    0.134E+00
RMM:   2    -0.389331267991E+03   -0.21286E-01   -0.40203E-01  7900   0.690E-01    0.103E+00
RMM:   3    -0.389418143001E+03   -0.86875E-01   -0.55560E-02  7935   0.269E-01    0.364E+00
RMM:   4    -0.389336364607E+03    0.81778E-01   -0.24118E-02  7925   0.181E-01    0.148E+00
RMM:   5    -0.389327343326E+03    0.90213E-02   -0.22091E-02  7894   0.184E-01    0.119E+00
RMM:   6    -0.389317554226E+03    0.97891E-02   -0.92548E-03  7898   0.122E-01    0.573E-01
RMM:   7    -0.389316632894E+03    0.92133E-03   -0.28867E-03  7894   0.676E-02    0.441E-01
RMM:   8    -0.389315473507E+03    0.11594E-02   -0.11335E-03  7893   0.439E-02    0.176E-01
RMM:   9    -0.389315467795E+03    0.57113E-05   -0.39430E-04  7859   0.252E-02    0.122E-01
RMM:  10    -0.389315611567E+03   -0.14377E-03   -0.16958E-04  7812   0.167E-02    0.976E-02
RMM:  11    -0.389315772270E+03   -0.16070E-03   -0.10431E-04  7763   0.131E-02    0.825E-02
RMM:  12    -0.389316023423E+03   -0.25115E-03   -0.87007E-05  7231   0.114E-02    0.464E-02
RMM:  13    -0.389316155672E+03   -0.13225E-03   -0.31115E-05  4777   0.726E-03    0.255E-02
RMM:  14    -0.389316318018E+03   -0.16235E-03   -0.18526E-05  4501   0.489E-03    0.288E-02
RMM:  15    -0.389316463961E+03   -0.14594E-03   -0.15556E-05  4492   0.428E-03    0.185E-02
RMM:  16    -0.389316549801E+03   -0.85840E-04   -0.82062E-06  4328   0.308E-03    0.768E-03
RMM:  17    -0.389316669170E+03   -0.11937E-03   -0.11952E-05  4462   0.333E-03    0.964E-03
RMM:  18    -0.389316770695E+03   -0.10153E-03   -0.12582E-05  4394   0.316E-03    0.585E-03
RMM:  19    -0.389316802510E+03   -0.31815E-04   -0.29210E-06  2689   0.165E-03    0.626E-03
RMM:  20    -0.389316851622E+03   -0.49112E-04   -0.50574E-06  3872   0.211E-03    0.546E-03
RMM:  21    -0.389316883372E+03   -0.31750E-04   -0.31242E-06  2719   0.162E-03    0.314E-03
RMM:  22    -0.389316905894E+03   -0.22522E-04   -0.21947E-06  2749   0.150E-03    0.278E-03
RMM:  23    -0.389316920448E+03   -0.14555E-04   -0.12684E-06  2294   0.126E-03    0.176E-03
RMM:  24    -0.389316925700E+03   -0.52516E-05   -0.30717E-07  1116   0.961E-04
   7 F= -.38931693E+03 E0= -.38930174E+03  d E =-.351057E+00
       N       E                     dE             d eps       ncg     rms          rms(c)
DAV:   1    -0.389407459738E+03   -0.90539E-01   -0.82542E+00  7840   0.414E+00    0.441E-01
RMM:   2    -0.389424801692E+03   -0.17342E-01   -0.18801E-01  7987   0.533E-01    0.344E-01
RMM:   3    -0.389436863724E+03   -0.12062E-01   -0.10603E-02  7974   0.124E-01    0.139E+00
RMM:   4    -0.389424177166E+03    0.12687E-01   -0.32683E-03  8018   0.680E-02    0.440E-01
RMM:   5    -0.389423348695E+03    0.82847E-03   -0.11346E-03  7897   0.432E-02    0.271E-01
RMM:   6    -0.389423698539E+03   -0.34984E-03   -0.11566E-03  7899   0.424E-02    0.317E-01
RMM:   7    -0.389423303404E+03    0.39513E-03   -0.10927E-03  7873   0.420E-02    0.154E-01
RMM:   8    -0.389423162180E+03    0.14122E-03   -0.30253E-04  7859   0.224E-02    0.746E-02
RMM:   9    -0.389423131880E+03    0.30300E-04   -0.54338E-05  6493   0.955E-03    0.537E-02
RMM:  10    -0.389423113860E+03    0.18019E-04   -0.16967E-05  4316   0.594E-03    0.257E-02
RMM:  11    -0.389423113605E+03    0.25523E-06   -0.10237E-05  4174   0.454E-03
   8 F= -.38942311E+03 E0= -.38940802E+03  d E =-.106188E+00
       N       E                     dE             d eps       ncg     rms          rms(c)
DAV:   1    -0.389449051961E+03   -0.25938E-01   -0.61098E+01  7840   0.113E+01    0.124E+00
RMM:   2    -0.389585238767E+03   -0.13619E+00   -0.14857E+00  7952   0.148E+00    0.823E-01
RMM:   3    -0.389589290214E+03   -0.40514E-02   -0.66342E-02  7988   0.313E-01    0.157E+00
RMM:   4    -0.389595367542E+03   -0.60773E-02   -0.16162E-02  8013   0.152E-01    0.183E+00
RMM:   5    -0.389575335821E+03    0.20032E-01   -0.73419E-03  7917   0.104E-01    0.809E-01
RMM:   6    -0.389576976167E+03   -0.16403E-02   -0.93198E-03  7900   0.120E-01    0.860E-01
RMM:   7    -0.389573315059E+03    0.36611E-02   -0.82451E-03  7894   0.116E-01    0.383E-01
RMM:   8    -0.389572475363E+03    0.83970E-03   -0.18482E-03  7886   0.550E-02    0.209E-01
RMM:   9    -0.389572348699E+03    0.12666E-03   -0.41949E-04  7886   0.259E-02    0.167E-01
RMM:  10    -0.389572156397E+03    0.19230E-03   -0.15953E-04  7823   0.166E-02    0.628E-02
RMM:  11    -0.389572153623E+03    0.27732E-05   -0.78986E-05  7369   0.114E-02
   9 F= -.38957215E+03 E0= -.38955726E+03  d E =-.255228E+00
       N       E                     dE             d eps       ncg     rms          rms(c)
DAV:   1    -0.389556917016E+03    0.15239E-01   -0.21642E+01  7840   0.654E+00    0.930E-01
RMM:   2    -0.389605037210E+03   -0.48120E-01   -0.53081E-01  7915   0.856E-01    0.674E-01
RMM:   3    -0.389650533656E+03   -0.45496E-01   -0.35602E-02  8064   0.222E-01    0.266E+00
RMM:   4    -0.389603911963E+03    0.46622E-01   -0.10939E-02  7963   0.125E-01    0.872E-01
RMM:   5    -0.389601946930E+03    0.19650E-02   -0.72189E-03  7888   0.106E-01    0.801E-01
RMM:   6    -0.389599110259E+03    0.28367E-02   -0.51251E-03  7889   0.888E-02    0.468E-01
RMM:   7    -0.389598209532E+03    0.90073E-03   -0.32381E-03  7896   0.717E-02    0.333E-01
RMM:   8    -0.389597513172E+03    0.69636E-03   -0.12180E-03  7890   0.439E-02    0.201E-01
RMM:   9    -0.389597289222E+03    0.22395E-03   -0.34000E-04  7850   0.239E-02    0.973E-02
RMM:  10    -0.389597293997E+03   -0.47755E-05   -0.12990E-04  7791   0.146E-02    0.844E-02
RMM:  11    -0.389597272473E+03    0.21525E-04   -0.75669E-05  7033   0.108E-02    0.448E-02
RMM:  12    -0.389597295760E+03   -0.23288E-04   -0.39805E-05  5131   0.826E-03    0.306E-02
RMM:  13    -0.389597312963E+03   -0.17203E-04   -0.13663E-05  4287   0.534E-03    0.214E-02
RMM:  14    -0.389597339456E+03   -0.26493E-04   -0.74965E-06  4210   0.374E-03    0.234E-02
RMM:  15    -0.389597369937E+03   -0.30481E-04   -0.47053E-06  4210   0.289E-03    0.111E-02
RMM:  16    -0.389597389692E+03   -0.19754E-04   -0.19490E-06  3739   0.190E-03    0.622E-03
RMM:  17    -0.389597443815E+03   -0.54123E-04   -0.32235E-06  3933   0.200E-03    0.866E-03
RMM:  18    -0.389597473761E+03   -0.29946E-04   -0.14650E-06  2667   0.154E-03    0.631E-03
RMM:  19    -0.389597497398E+03   -0.23636E-04   -0.95193E-07  2363   0.139E-03    0.411E-03
RMM:  20    -0.389597534421E+03   -0.37023E-04   -0.16888E-06  2677   0.140E-03    0.297E-03
RMM:  21    -0.389597555169E+03   -0.20748E-04   -0.43794E-07  1283   0.111E-03    0.226E-03
RMM:  22    -0.389597585251E+03   -0.30082E-04   -0.18252E-06  2921   0.144E-03    0.265E-03
RMM:  23    -0.389597599291E+03   -0.14040E-04   -0.54873E-07  1458   0.107E-03    0.218E-03
RMM:  24    -0.389597606318E+03   -0.70270E-05   -0.35685E-07  1128   0.997E-04
  10 F= -.38959761E+03 E0= -.38958279E+03  d E =-.254527E-01
       N       E                     dE             d eps       ncg     rms          rms(c)
DAV:   1    -0.389602982284E+03   -0.53830E-02   -0.25031E+00  7872   0.214E+00    0.302E-01
RMM:   2    -0.389608231757E+03   -0.52495E-02   -0.60439E-02  7916   0.289E-01    0.211E-01
RMM:   3    -0.389610993666E+03   -0.27619E-02   -0.38824E-03  8135   0.721E-02    0.686E-01
RMM:   4    -0.389608298410E+03    0.26953E-02   -0.99071E-04  7969   0.373E-02    0.333E-01
RMM:   5    -0.389607862593E+03    0.43582E-03   -0.75668E-04  7879   0.342E-02    0.257E-01
RMM:   6    -0.389607658764E+03    0.20383E-03   -0.61855E-04  7875   0.308E-02    0.180E-01
RMM:   7    -0.389607516593E+03    0.14217E-03   -0.38991E-04  7854   0.249E-02    0.113E-01
RMM:   8    -0.389607438174E+03    0.78419E-04   -0.11812E-04  7771   0.140E-02    0.526E-02
RMM:   9    -0.389607435663E+03    0.25108E-05   -0.28934E-05  4652   0.720E-03
  11 F= -.38960744E+03 E0= -.38959259E+03  d E =-.352820E-01
       N       E                     dE             d eps       ncg     rms          rms(c)
DAV:   1    -0.389622241570E+03   -0.14803E-01   -0.15615E+01  7840   0.550E+00    0.687E-01
RMM:   2    -0.389651869808E+03   -0.29628E-01   -0.32250E-01  7956   0.739E-01    0.647E-01
RMM:   3    -0.389654666246E+03   -0.27964E-02   -0.20110E-02  7974   0.180E-01    0.101E+00
RMM:   4    -0.389659560258E+03   -0.48940E-02   -0.62306E-03  7955   0.974E-02    0.129E+00
RMM:   5    -0.389650173432E+03    0.93868E-02   -0.34563E-03  7904   0.691E-02    0.647E-01
RMM:   6    -0.389648749251E+03    0.14242E-02   -0.32708E-03  7888   0.711E-02    0.386E-01
RMM:   7    -0.389648573317E+03    0.17593E-03   -0.23921E-03  7887   0.619E-02    0.285E-01
RMM:   8    -0.389648298224E+03    0.27509E-03   -0.10576E-03  7882   0.418E-02    0.203E-01
RMM:   9    -0.389648085706E+03    0.21252E-03   -0.29505E-04  7840   0.220E-02    0.111E-01
RMM:  10    -0.389648012493E+03    0.73212E-04   -0.83738E-05  7677   0.118E-02    0.524E-02
RMM:  11    -0.389647998665E+03    0.13828E-04   -0.27676E-05  4602   0.717E-03    0.315E-02
RMM:  12    -0.389648002121E+03   -0.34556E-05   -0.18641E-05  4318   0.606E-03
  12 F= -.38964800E+03 E0= -.38963330E+03  d E =-.405665E-01
       N       E                     dE             d eps       ncg     rms          rms(c)
DAV:   1    -0.389646384221E+03    0.16144E-02   -0.60823E+00  7840   0.348E+00    0.436E-01
RMM:   2    -0.389658074444E+03   -0.11690E-01   -0.12892E-01  7951   0.466E-01    0.393E-01
RMM:   3    -0.389659166804E+03   -0.10924E-02   -0.76402E-03  7964   0.111E-01    0.618E-01
RMM:   4    -0.389661386846E+03   -0.22200E-02   -0.25261E-03  7954   0.614E-02    0.828E-01
RMM:   5    -0.389657471130E+03    0.39157E-02   -0.13839E-03  7903   0.442E-02    0.405E-01
RMM:   6    -0.389657157718E+03    0.31341E-03   -0.12967E-03  7885   0.448E-02    0.258E-01
RMM:   7    -0.389656971003E+03    0.18671E-03   -0.95317E-04  7882   0.393E-02    0.173E-01
RMM:   8    -0.389656879232E+03    0.91772E-04   -0.41200E-04  7858   0.263E-02    0.128E-01
RMM:   9    -0.389656804712E+03    0.74519E-04   -0.11589E-04  7810   0.138E-02    0.710E-02
RMM:  10    -0.389656771739E+03    0.32973E-04   -0.30968E-05  4894   0.766E-03    0.262E-02
RMM:  11    -0.389656770276E+03    0.14628E-05   -0.10216E-05  4136   0.468E-03
  13 F= -.38965677E+03 E0= -.38964218E+03  d E =-.493346E-01
       N       E                     dE             d eps       ncg     rms          rms(c)
DAV:   1    -0.389677482342E+03   -0.20711E-01   -0.10748E+00  7856   0.141E+00    0.229E-01
RMM:   2    -0.389679154668E+03   -0.16723E-02   -0.20149E-02  7910   0.208E-01    0.246E-01
RMM:   3    -0.389679151137E+03    0.35317E-05   -0.16944E-03  7969   0.534E-02    0.267E-01
RMM:   4    -0.389678837547E+03    0.31359E-03   -0.68280E-04  7908   0.335E-02    0.191E-01
RMM:   5    -0.389679712521E+03   -0.87497E-03   -0.44108E-04  7878   0.250E-02    0.392E-01
RMM:   6    -0.389678915992E+03    0.79653E-03   -0.29011E-04  7831   0.201E-02    0.194E-01
RMM:   7    -0.389678707069E+03    0.20892E-03   -0.23849E-04  7823   0.193E-02    0.867E-02
RMM:   8    -0.389678683817E+03    0.23252E-04   -0.91921E-05  7702   0.122E-02    0.582E-02
RMM:   9    -0.389678674352E+03    0.94655E-05   -0.31687E-05  4950   0.752E-03
  14 F= -.38967867E+03 E0= -.38966413E+03  d E =-.219041E-01
       N       E                     dE             d eps       ncg     rms          rms(c)
DAV:   1    -0.389709496278E+03   -0.30812E-01   -0.96466E+00  7840   0.423E+00    0.677E-01
RMM:   2    -0.389724978609E+03   -0.15482E-01   -0.17989E-01  7901   0.626E-01    0.725E-01
RMM:   3    -0.389725479814E+03   -0.50120E-03   -0.14780E-02  7962   0.158E-01    0.845E-01
RMM:   4    -0.389729378864E+03   -0.38991E-02   -0.61544E-03  7923   0.982E-02    0.112E+00
RMM:   5    -0.389726213554E+03    0.31653E-02   -0.37763E-03  7922   0.701E-02    0.959E-01
RMM:   6    -0.389721788365E+03    0.44252E-02   -0.34319E-03  7880   0.737E-02    0.415E-01
RMM:   7    -0.389720906036E+03    0.88233E-03   -0.20084E-03  7886   0.572E-02    0.238E-01
RMM:   8    -0.389720795241E+03    0.11080E-03   -0.80429E-04  7885   0.358E-02    0.201E-01
RMM:   9    -0.389720600755E+03    0.19449E-03   -0.31921E-04  7841   0.226E-02    0.116E-01
RMM:  10    -0.389720544103E+03    0.56652E-04   -0.11782E-04  7806   0.139E-02    0.665E-02
RMM:  11    -0.389720526522E+03    0.17581E-04   -0.40441E-05  5784   0.828E-03    0.322E-02
RMM:  12    -0.389720540176E+03   -0.13654E-04   -0.17245E-05  4279   0.574E-03    0.236E-02
RMM:  13    -0.389720563034E+03   -0.22859E-04   -0.88453E-06  4224   0.421E-03    0.226E-02
RMM:  14    -0.389720571008E+03   -0.79734E-05   -0.33917E-06  4118   0.267E-03
  15 F= -.38972057E+03 E0= -.38970623E+03  d E =-.638007E-01
       N       E                     dE             d eps       ncg     rms          rms(c)
DAV:   1    -0.389633499285E+03    0.87064E-01   -0.38473E+01  7840   0.856E+00    0.133E+00
RMM:   2    -0.389703194889E+03   -0.69696E-01   -0.73529E-01  7906   0.127E+00    0.159E+00
RMM:   3    -0.389706152160E+03   -0.29573E-02   -0.58928E-02  8001   0.314E-01    0.177E+00
RMM:   4    -0.389753725447E+03   -0.47573E-01   -0.28976E-02  7936   0.202E-01    0.318E+00
RMM:   5    -0.389691821794E+03    0.61904E-01   -0.15403E-02  7911   0.148E-01    0.131E+00
RMM:   6    -0.389687664638E+03    0.41572E-02   -0.13609E-02  7885   0.147E-01    0.841E-01
RMM:   7    -0.389684110001E+03    0.35546E-02   -0.80869E-03  7890   0.115E-01    0.483E-01
RMM:   8    -0.389684027118E+03    0.82883E-04   -0.34934E-03  7890   0.746E-02    0.467E-01
RMM:   9    -0.389682890336E+03    0.11368E-02   -0.13812E-03  7885   0.472E-02    0.235E-01
RMM:  10    -0.389682590985E+03    0.29935E-03   -0.50355E-04  7867   0.286E-02    0.120E-01
RMM:  11    -0.389682520705E+03    0.70279E-04   -0.16922E-04  7819   0.166E-02    0.703E-02
RMM:  12    -0.389682530976E+03   -0.10271E-04   -0.74770E-05  7346   0.109E-02    0.504E-02
RMM:  13    -0.389682558728E+03   -0.27752E-04   -0.33062E-05  4920   0.769E-03    0.442E-02
RMM:  14    -0.389682571188E+03   -0.12461E-04   -0.13155E-05  4279   0.520E-03    0.305E-02
RMM:  15    -0.389682600168E+03   -0.28979E-04   -0.79661E-06  4214   0.395E-03    0.143E-02
RMM:  16    -0.389682618402E+03   -0.18234E-04   -0.29965E-06  4144   0.256E-03    0.525E-03
RMM:  17    -0.389682637025E+03   -0.18623E-04   -0.11363E-06  2925   0.154E-03    0.594E-03
RMM:  18    -0.389682665295E+03   -0.28270E-04   -0.15614E-06  3080   0.157E-03    0.635E-03
RMM:  19    -0.389682684171E+03   -0.18877E-04   -0.90338E-07  2011   0.130E-03    0.243E-03
RMM:  20    -0.389682701591E+03   -0.17419E-04   -0.10846E-06  2266   0.131E-03    0.226E-03
RMM:  21    -0.389682721025E+03   -0.19434E-04   -0.11451E-06  2116   0.133E-03    0.131E-03
RMM:  22    -0.389682731091E+03   -0.10066E-04   -0.83226E-07  1837   0.117E-03    0.127E-03
RMM:  23    -0.389682743174E+03   -0.12083E-04   -0.11697E-06  1995   0.120E-03    0.167E-03
RMM:  24    -0.389682748849E+03   -0.56750E-05   -0.27151E-07  1026   0.101E-03
  16 F= -.38968275E+03 E0= -.38966870E+03  d E =-.259786E-01
       N       E                     dE             d eps       ncg     rms          rms(c)
DAV:   1    -0.389697718175E+03   -0.14975E-01   -0.21219E+01  7840   0.643E+00    0.998E-01
RMM:   2    -0.389737547619E+03   -0.39829E-01   -0.42951E-01  7910   0.930E-01    0.109E+00
RMM:   3    -0.389736031259E+03    0.15164E-02   -0.32685E-02  7982   0.233E-01    0.111E+00
RMM:   4    -0.389732376134E+03    0.36551E-02   -0.13305E-02  7918   0.148E-01    0.965E-01
RMM:   5    -0.389755069234E+03   -0.22693E-01   -0.91906E-03  7905   0.112E-01    0.201E+00
RMM:   6    -0.389731020691E+03    0.24049E-01   -0.66022E-03  7894   0.966E-02    0.718E-01
RMM:   7    -0.389727766409E+03    0.32543E-02   -0.48250E-03  7885   0.884E-02    0.321E-01
RMM:   8    -0.389727689728E+03    0.76681E-04   -0.18265E-03  7891   0.537E-02    0.308E-01
RMM:   9    -0.389727227153E+03    0.46257E-03   -0.69151E-04  7881   0.333E-02    0.182E-01
RMM:  10    -0.389727020292E+03    0.20686E-03   -0.26439E-04  7842   0.208E-02    0.861E-02
RMM:  11    -0.389726972628E+03    0.47664E-04   -0.85376E-05  7508   0.118E-02    0.490E-02
RMM:  12    -0.389726969206E+03    0.34216E-05   -0.39808E-05  5580   0.813E-03
  17 F= -.38972697E+03 E0= -.38971274E+03  d E =-.701989E-01
       N       E                     dE             d eps       ncg     rms          rms(c)
DAV:   1    -0.389735268457E+03   -0.82958E-02   -0.41451E-01  7872   0.907E-01    0.141E-01
RMM:   2    -0.389736817992E+03   -0.15495E-02   -0.12878E-02  7937   0.135E-01    0.254E-01
RMM:   3    -0.389737129057E+03   -0.31107E-03   -0.88741E-04  8038   0.351E-02    0.352E-01
RMM:   4    -0.389736538713E+03    0.59034E-03   -0.34143E-04  7883   0.227E-02    0.219E-01
RMM:   5    -0.389736255429E+03    0.28328E-03   -0.20010E-04  7824   0.180E-02    0.794E-02
RMM:   6    -0.389736277644E+03   -0.22215E-04   -0.15410E-04  7834   0.157E-02    0.907E-02
RMM:   7    -0.389736244257E+03    0.33387E-04   -0.85804E-05  7638   0.120E-02    0.640E-02
RMM:   8    -0.389736218935E+03    0.25323E-04   -0.20111E-05  4412   0.620E-03    0.203E-02
RMM:   9    -0.389736222704E+03   -0.37690E-05   -0.82406E-06  4076   0.394E-03
  18 F= -.38973622E+03 E0= -.38972200E+03  d E =-.925350E-02
       N       E                     dE             d eps       ncg     rms          rms(c)
DAV:   1    -0.389742828839E+03   -0.66099E-02   -0.15132E+00  7840   0.172E+00    0.265E-01
RMM:   2    -0.389747133769E+03   -0.43049E-02   -0.46097E-02  7941   0.255E-01    0.227E-01
RMM:   3    -0.389749930437E+03   -0.27967E-02   -0.31136E-03  8045   0.668E-02    0.705E-01
RMM:   4    -0.389747947072E+03    0.19834E-02   -0.11772E-03  7947   0.404E-02    0.480E-01
RMM:   5    -0.389746455015E+03    0.14921E-02   -0.68120E-04  7897   0.323E-02    0.181E-01
RMM:   6    -0.389746480820E+03   -0.25805E-04   -0.52576E-04  7866   0.287E-02    0.163E-01
RMM:   7    -0.389746313380E+03    0.16744E-03   -0.28986E-04  7845   0.220E-02    0.882E-02
RMM:   8    -0.389746258501E+03    0.54878E-04   -0.79998E-05  7521   0.116E-02    0.454E-02
RMM:   9    -0.389746256831E+03    0.16704E-05   -0.22781E-05  4484   0.645E-03
  19 F= -.38974626E+03 E0= -.38973207E+03  d E =-.192876E-01
       N       E                     dE             d eps       ncg     rms          rms(c)
DAV:   1    -0.389721130336E+03    0.25128E-01   -0.60669E+00  7840   0.343E+00    0.527E-01
RMM:   2    -0.389738645365E+03   -0.17515E-01   -0.18748E-01  7939   0.508E-01    0.444E-01
RMM:   3    -0.389750831542E+03   -0.12186E-01   -0.12439E-02  8057   0.132E-01    0.145E+00
RMM:   4    -0.389740966753E+03    0.98648E-02   -0.46286E-03  7965   0.802E-02    0.881E-01
RMM:   5    -0.389736057486E+03    0.49093E-02   -0.26649E-03  7905   0.638E-02    0.376E-01
RMM:   6    -0.389736159789E+03   -0.10230E-03   -0.20996E-03  7884   0.571E-02    0.346E-01
RMM:   7    -0.389735359088E+03    0.80070E-03   -0.11810E-03  7891   0.441E-02    0.168E-01
RMM:   8    -0.389735160008E+03    0.19908E-03   -0.31900E-04  7857   0.229E-02    0.946E-02
RMM:   9    -0.389735133702E+03    0.26306E-04   -0.97457E-05  7686   0.125E-02    0.662E-02
RMM:  10    -0.389735134584E+03   -0.88187E-06   -0.56674E-05  6382   0.962E-03
  20 F= -.38973513E+03 E0= -.38972101E+03  d E =-.816538E-02
       N       E                     dE             d eps       ncg     rms          rms(c)
DAV:   1    -0.389739103883E+03   -0.39702E-02   -0.35834E+00  7840   0.260E+00    0.408E-01
RMM:   2    -0.389749329577E+03   -0.10226E-01   -0.11034E-01  7931   0.393E-01    0.323E-01
RMM:   3    -0.389749906263E+03   -0.57669E-03   -0.70499E-03  8067   0.100E-01    0.566E-01
RMM:   4    -0.389748075565E+03    0.18307E-02   -0.20758E-03  7941   0.583E-02    0.289E-01
RMM:   5    -0.389750057681E+03   -0.19821E-02   -0.13453E-03  7900   0.444E-02    0.589E-01
RMM:   6    -0.389748867374E+03    0.11903E-02   -0.90297E-04  7880   0.344E-02    0.420E-01
RMM:   7    -0.389747755886E+03    0.11115E-02   -0.74979E-04  7864   0.346E-02    0.157E-01
RMM:   8    -0.389747588771E+03    0.16711E-03   -0.22671E-04  7847   0.192E-02    0.665E-02
RMM:   9    -0.389747588056E+03    0.71524E-06   -0.65882E-05  6966   0.102E-02
  21 F= -.38974759E+03 E0= -.38973343E+03  d E =-.206189E-01
       N       E                     dE             d eps       ncg     rms          rms(c)
DAV:   1    -0.389751973379E+03   -0.43846E-02   -0.14422E-01  7872   0.515E-01    0.100E-01
RMM:   2    -0.389752487398E+03   -0.51402E-03   -0.29299E-03  7894   0.748E-02    0.197E-01
RMM:   3    -0.389752638633E+03   -0.15124E-03   -0.33755E-04  7886   0.229E-02    0.251E-01
RMM:   4    -0.389752338142E+03    0.30049E-03   -0.17208E-04  7846   0.157E-02    0.147E-01
RMM:   5    -0.389752252028E+03    0.86115E-04   -0.10638E-04  7784   0.131E-02    0.794E-02
RMM:   6    -0.389752227425E+03    0.24603E-04   -0.63757E-05  7146   0.103E-02    0.426E-02
RMM:   7    -0.389752233811E+03   -0.63868E-05   -0.32934E-05  5150   0.751E-03
  22 F= -.38975223E+03 E0= -.38973815E+03  d E =-.464576E-02
       N       E                     dE             d eps       ncg     rms          rms(c)
DAV:   1    -0.389759926915E+03   -0.76995E-02   -0.12972E+00  7840   0.154E+00    0.267E-01
RMM:   2    -0.389762241965E+03   -0.23150E-02   -0.25297E-02  7893   0.218E-01    0.204E-01
RMM:   3    -0.389764136733E+03   -0.18948E-02   -0.23300E-03  7917   0.612E-02    0.549E-01
RMM:   4    -0.389764453690E+03   -0.31696E-03   -0.11244E-03  7934   0.397E-02    0.585E-01
RMM:   5    -0.389762229621E+03    0.22241E-02   -0.70407E-04  7885   0.320E-02    0.206E-01
RMM:   6    -0.389762172755E+03    0.56866E-04   -0.47177E-04  7858   0.271E-02    0.144E-01
RMM:   7    -0.389762042475E+03    0.13028E-03   -0.19917E-04  7824   0.181E-02    0.639E-02
RMM:   8    -0.389762008908E+03    0.33567E-04   -0.58012E-05  6851   0.100E-02    0.344E-02
RMM:   9    -0.389762004812E+03    0.40967E-05   -0.13170E-05  4250   0.504E-03
  23 F= -.38976200E+03 E0= -.38974790E+03  d E =-.144168E-01
       N       E                     dE             d eps       ncg     rms          rms(c)
DAV:   1    -0.389752668499E+03    0.93404E-02   -0.51943E+00  7840   0.309E+00    0.519E-01
RMM:   2    -0.389761769747E+03   -0.91012E-02   -0.10102E-01  7893   0.435E-01    0.374E-01
RMM:   3    -0.389767924814E+03   -0.61551E-02   -0.85716E-03  7914   0.118E-01    0.981E-01
RMM:   4    -0.389769362479E+03   -0.14377E-02   -0.39644E-03  7937   0.750E-02    0.108E+00
RMM:   5    -0.389761904257E+03    0.74582E-02   -0.24642E-03  7882   0.593E-02    0.407E-01
RMM:   6    -0.389761649651E+03    0.25461E-03   -0.16533E-03  7880   0.507E-02    0.287E-01
RMM:   7    -0.389761119847E+03    0.52980E-03   -0.76195E-04  7884   0.353E-02    0.136E-01
RMM:   8    -0.389760983863E+03    0.13598E-03   -0.22023E-04  7835   0.192E-02    0.784E-02
RMM:   9    -0.389760957357E+03    0.26506E-04   -0.54804E-05  6616   0.949E-03    0.499E-02
RMM:  10    -0.389760946673E+03    0.10684E-04   -0.20514E-05  4383   0.627E-03    0.256E-02
RMM:  11    -0.389760944391E+03    0.22819E-05   -0.73233E-06  4139   0.401E-03
  24 F= -.38976094E+03 E0= -.38974691E+03  d E =-.133563E-01
       N       E                     dE             d eps       ncg     rms          rms(c)
DAV:   1    -0.389762586808E+03   -0.16401E-02   -0.15360E+00  7840   0.168E+00    0.280E-01
RMM:   2    -0.389765359623E+03   -0.27728E-02   -0.29695E-02  7893   0.236E-01    0.225E-01
RMM:   3    -0.389770362941E+03   -0.50033E-02   -0.27878E-03  7916   0.655E-02    0.862E-01
RMM:   4    -0.389766417150E+03    0.39458E-02   -0.13640E-03  7923   0.437E-02    0.441E-01
RMM:   5    -0.389765258090E+03    0.11591E-02   -0.78998E-04  7875   0.351E-02    0.188E-01
RMM:   6    -0.389765291917E+03   -0.33827E-04   -0.49839E-04  7857   0.278E-02    0.161E-01
RMM:   7    -0.389765134262E+03    0.15766E-03   -0.23002E-04  7828   0.195E-02    0.734E-02
RMM:   8    -0.389765100185E+03    0.34077E-04   -0.67706E-05  7171   0.107E-02    0.448E-02
RMM:   9    -0.389765092395E+03    0.77901E-05   -0.16934E-05  4332   0.564E-03
  25 F= -.38976509E+03 E0= -.38975103E+03  d E =-.175043E-01
       N       E                     dE             d eps       ncg     rms          rms(c)
DAV:   1    -0.389768553522E+03   -0.34533E-02   -0.27983E-01  7840   0.763E-01    0.869E-02
RMM:   2    -0.389769143578E+03   -0.59006E-03   -0.59546E-03  7972   0.106E-01    0.973E-02
RMM:   3    -0.389769386499E+03   -0.24292E-03   -0.39291E-04  7944   0.250E-02    0.213E-01
RMM:   4    -0.389769229606E+03    0.15689E-03   -0.14237E-04  7831   0.140E-02    0.159E-01
RMM:   5    -0.389769068245E+03    0.16136E-03   -0.70313E-05  7342   0.107E-02    0.594E-02
RMM:   6    -0.389769073826E+03   -0.55809E-05   -0.48324E-05  6196   0.898E-03
  26 F= -.38976907E+03 E0= -.38975500E+03  d E =-.398143E-02
       N       E                     dE             d eps       ncg     rms          rms(c)
DAV:   1    -0.389774206693E+03   -0.51384E-02   -0.25162E+00  7840   0.229E+00    0.260E-01
RMM:   2    -0.389779393205E+03   -0.51865E-02   -0.53292E-02  7971   0.317E-01    0.268E-01
RMM:   3    -0.389780270493E+03   -0.87729E-03   -0.34229E-03  7976   0.741E-02    0.454E-01
RMM:   4    -0.389781776932E+03   -0.15064E-02   -0.12747E-03  8021   0.413E-02    0.655E-01
RMM:   5    -0.389778767296E+03    0.30096E-02   -0.66195E-04  7883   0.316E-02    0.160E-01
RMM:   6    -0.389779051921E+03   -0.28462E-03   -0.44513E-04  7889   0.260E-02    0.229E-01
RMM:   7    -0.389778786025E+03    0.26590E-03   -0.40004E-04  7855   0.258E-02    0.878E-02
RMM:   8    -0.389778729462E+03    0.56562E-04   -0.91537E-05  7575   0.122E-02    0.348E-02
RMM:   9    -0.389778722481E+03    0.69811E-05   -0.17751E-05  4289   0.579E-03
  27 F= -.38977872E+03 E0= -.38976458E+03  d E =-.136301E-01
       N       E                     dE             d eps       ncg     rms          rms(c)
DAV:   1    -0.389769200047E+03    0.95294E-02   -0.10089E+01  7840   0.457E+00    0.515E-01
RMM:   2    -0.389790025060E+03   -0.20825E-01   -0.21584E-01  7970   0.637E-01    0.509E-01
RMM:   3    -0.389803303859E+03   -0.13279E-01   -0.14001E-02  8003   0.148E-01    0.147E+00
RMM:   4    -0.389793049038E+03    0.10255E-01   -0.51912E-03  8010   0.846E-02    0.878E-01
RMM:   5    -0.389788169695E+03    0.48793E-02   -0.23707E-03  7896   0.613E-02    0.357E-01
RMM:   6    -0.389788345134E+03   -0.17544E-03   -0.18666E-03  7894   0.540E-02    0.321E-01
RMM:   7    -0.389787922546E+03    0.42259E-03   -0.15594E-03  7894   0.510E-02    0.182E-01
RMM:   8    -0.389787671908E+03    0.25064E-03   -0.39626E-04  7875   0.257E-02    0.855E-02
RMM:   9    -0.389787648423E+03    0.23485E-04   -0.77205E-05  7627   0.112E-02    0.714E-02
RMM:  10    -0.389787613196E+03    0.35227E-04   -0.33074E-05  4834   0.778E-03    0.293E-02
RMM:  11    -0.389787609383E+03    0.38128E-05   -0.16539E-05  4183   0.603E-03
  28 F= -.38978761E+03 E0= -.38977341E+03  d E =-.225170E-01
       N       E                     dE             d eps       ncg     rms          rms(c)
DAV:   1    -0.389786534914E+03    0.10783E-02   -0.16745E+00  7840   0.183E+00    0.256E-01
RMM:   2    -0.389791257750E+03   -0.47228E-02   -0.49796E-02  7947   0.269E-01    0.232E-01
RMM:   3    -0.389793822908E+03   -0.25652E-02   -0.31011E-03  8075   0.659E-02    0.691E-01
RMM:   4    -0.389791666237E+03    0.21567E-02   -0.10131E-03  7950   0.378E-02    0.430E-01
RMM:   5    -0.389790503643E+03    0.11626E-02   -0.57173E-04  7882   0.300E-02    0.158E-01
RMM:   6    -0.389790518423E+03   -0.14780E-04   -0.50344E-04  7875   0.280E-02    0.153E-01
RMM:   7    -0.389790398396E+03    0.12003E-03   -0.30139E-04  7844   0.222E-02    0.929E-02
RMM:   8    -0.389790347849E+03    0.50547E-04   -0.84888E-05  7504   0.117E-02    0.553E-02
RMM:   9    -0.389790333511E+03    0.14339E-04   -0.23770E-05  4494   0.666E-03    0.273E-02
RMM:  10    -0.389790338394E+03   -0.48830E-05   -0.10248E-05  4187   0.455E-03
  29 F= -.38979034E+03 E0= -.38977609E+03  d E =-.272901E-02
       N       E                     dE             d eps       ncg     rms          rms(c)
DAV:   1    -0.389790448228E+03   -0.11472E-03   -0.10555E-01  7936   0.456E-01    0.636E-02
RMM:   2    -0.389790766757E+03   -0.31853E-03   -0.31177E-03  7937   0.673E-02    0.695E-02
RMM:   3    -0.389790881019E+03   -0.11426E-03   -0.19346E-04  7966   0.163E-02    0.156E-01
RMM:   4    -0.389790816488E+03    0.64530E-04   -0.69084E-05  6729   0.988E-03    0.122E-01
RMM:   5    -0.389790727520E+03    0.88968E-04   -0.36740E-05  5289   0.803E-03    0.407E-02
RMM:   6    -0.389790742446E+03   -0.14926E-04   -0.31458E-05  4854   0.768E-03    0.379E-02
RMM:   7    -0.389790749392E+03   -0.69461E-05   -0.21435E-05  4411   0.661E-03
  30 F= -.38979075E+03 E0= -.38977658E+03  d E =-.314001E-02
       N       E                     dE             d eps       ncg     rms          rms(c)
DAV:   1    -0.389792929992E+03   -0.21875E-02   -0.89822E-01  7840   0.132E+00    0.161E-01
RMM:   2    -0.389794631187E+03   -0.17012E-02   -0.18642E-02  7917   0.192E-01    0.119E-01
RMM:   3    -0.389794740884E+03   -0.10970E-03   -0.10388E-03  7990   0.416E-02    0.198E-01
RMM:   4    -0.389794951174E+03   -0.21029E-03   -0.28890E-04  7966   0.209E-02    0.264E-01
RMM:   5    -0.389794621831E+03    0.32934E-03   -0.18328E-04  7852   0.160E-02    0.158E-01
RMM:   6    -0.389794550417E+03    0.71414E-04   -0.16400E-04  7828   0.160E-02    0.101E-01
RMM:   7    -0.389794526160E+03    0.24256E-04   -0.11974E-04  7816   0.141E-02    0.568E-02
RMM:   8    -0.389794514613E+03    0.11547E-04   -0.46040E-05  6126   0.896E-03    0.382E-02
RMM:   9    -0.389794506834E+03    0.77784E-05   -0.11584E-05  4135   0.492E-03
  31 F= -.38979451E+03 E0= -.38978030E+03  d E =-.375744E-02
       N       E                     dE             d eps       ncg     rms          rms(c)
DAV:   1    -0.389794654848E+03   -0.14024E-03   -0.16337E+00  7840   0.178E+00    0.221E-01
RMM:   2    -0.389797817925E+03   -0.31631E-02   -0.34479E-02  7915   0.260E-01    0.175E-01
RMM:   3    -0.389799161347E+03   -0.13434E-02   -0.20833E-03  7976   0.583E-02    0.485E-01
RMM:   4    -0.389798147501E+03    0.10138E-02   -0.64448E-04  7991   0.302E-02    0.312E-01
RMM:   5    -0.389797665123E+03    0.48238E-03   -0.39083E-04  7879   0.246E-02    0.181E-01
RMM:   6    -0.389797620434E+03    0.44689E-04   -0.28893E-04  7854   0.213E-02    0.126E-01
RMM:   7    -0.389797589503E+03    0.30931E-04   -0.22224E-04  7845   0.192E-02    0.787E-02
RMM:   8    -0.389797563290E+03    0.26214E-04   -0.90783E-05  7619   0.124E-02    0.498E-02
RMM:   9    -0.389797549501E+03    0.13788E-04   -0.19003E-05  4339   0.603E-03    0.292E-02
RMM:  10    -0.389797545247E+03    0.42543E-05   -0.63177E-06  4072   0.374E-03
  32 F= -.38979755E+03 E0= -.38978337E+03  d E =-.679585E-02
       N       E                     dE             d eps       ncg     rms          rms(c)
DAV:   1    -0.389784621190E+03    0.12928E-01   -0.65463E+00  7840   0.357E+00    0.447E-01
RMM:   2    -0.389797595791E+03   -0.12975E-01   -0.13898E-01  7912   0.522E-01    0.356E-01
RMM:   3    -0.389806254799E+03   -0.86590E-02   -0.86683E-03  7984   0.118E-01    0.118E+00
RMM:   4    -0.389797700344E+03    0.85545E-02   -0.27418E-03  7994   0.625E-02    0.486E-01
RMM:   5    -0.389796824773E+03    0.87557E-03   -0.16475E-03  7889   0.516E-02    0.341E-01
RMM:   6    -0.389796719135E+03    0.10564E-03   -0.11665E-03  7886   0.426E-02    0.295E-01
RMM:   7    -0.389796403198E+03    0.31594E-03   -0.88024E-04  7872   0.382E-02    0.150E-01
RMM:   8    -0.389796306631E+03    0.96566E-04   -0.33794E-04  7859   0.240E-02    0.891E-02
RMM:   9    -0.389796259181E+03    0.47451E-04   -0.72816E-05  7537   0.112E-02    0.531E-02
RMM:  10    -0.389796243768E+03    0.15413E-04   -0.18475E-05  4346   0.594E-03    0.313E-02
RMM:  11    -0.389796237709E+03    0.60582E-05   -0.99952E-06  4140   0.463E-03
  33 F= -.38979624E+03 E0= -.38978211E+03  d E =-.548832E-02
       N       E                     dE             d eps       ncg     rms          rms(c)
DAV:   1    -0.389793259152E+03    0.29846E-02   -0.27866E+00  7840   0.233E+00    0.293E-01
RMM:   2    -0.389798887131E+03   -0.56280E-02   -0.60581E-02  7923   0.339E-01    0.234E-01
RMM:   3    -0.389800204371E+03   -0.13172E-02   -0.35698E-03  7951   0.762E-02    0.526E-01
RMM:   4    -0.389799836584E+03    0.36779E-03   -0.10841E-03  7996   0.391E-02    0.483E-01
RMM:   5    -0.389798435756E+03    0.14008E-02   -0.67463E-04  7879   0.321E-02    0.208E-01
RMM:   6    -0.389798483004E+03   -0.47248E-04   -0.53951E-04  7877   0.289E-02    0.199E-01
RMM:   7    -0.389798352760E+03    0.13024E-03   -0.37993E-04  7852   0.248E-02    0.113E-01
RMM:   8    -0.389798312810E+03    0.39950E-04   -0.17694E-04  7838   0.172E-02    0.722E-02
RMM:   9    -0.389798273668E+03    0.39141E-04   -0.45948E-05  6117   0.897E-03    0.323E-02
RMM:  10    -0.389798268094E+03    0.55747E-05   -0.10235E-05  4125   0.461E-03
  34 F= -.38979827E+03 E0= -.38978412E+03  d E =-.751870E-02
       N       E                     dE             d eps       ncg     rms          rms(c)
DAV:   1    -0.389799384016E+03   -0.11103E-02   -0.24054E-01  7888   0.678E-01    0.725E-02
RMM:   2    -0.389799890848E+03   -0.50683E-03   -0.45583E-03  7906   0.103E-01    0.124E-01
RMM:   3    -0.389799938373E+03   -0.47525E-04   -0.26801E-04  8106   0.213E-02    0.157E-01
RMM:   4    -0.389799820062E+03    0.11831E-03   -0.96636E-05  7761   0.124E-02    0.977E-02
RMM:   5    -0.389799769989E+03    0.50073E-04   -0.45577E-05  6021   0.890E-03    0.551E-02
RMM:   6    -0.389799775740E+03   -0.57511E-05   -0.47854E-05  6308   0.905E-03
  35 F= -.38979978E+03 E0= -.38978571E+03  d E =-.150765E-02
       N       E                     dE             d eps       ncg     rms          rms(c)
DAV:   1    -0.389798223324E+03    0.15467E-02   -0.21638E+00  7840   0.204E+00    0.221E-01
RMM:   2    -0.389802359396E+03   -0.41361E-02   -0.41027E-02  7901   0.308E-01    0.266E-01
RMM:   3    -0.389803574294E+03   -0.12149E-02   -0.25264E-03  8057   0.664E-02    0.506E-01
RMM:   4    -0.389802931074E+03    0.64322E-03   -0.90498E-04  7959   0.359E-02    0.421E-01
RMM:   5    -0.389801747119E+03    0.11840E-02   -0.49144E-04  7882   0.281E-02    0.151E-01
RMM:   6    -0.389801918036E+03   -0.17092E-03   -0.38398E-04  7870   0.242E-02    0.208E-01
RMM:   7    -0.389801719490E+03    0.19855E-03   -0.36918E-04  7860   0.248E-02    0.938E-02
RMM:   8    -0.389801658011E+03    0.61479E-04   -0.78660E-05  7550   0.114E-02    0.357E-02
RMM:   9    -0.389801651928E+03    0.60834E-05   -0.17018E-05  4288   0.563E-03
  36 F= -.38980165E+03 E0= -.38978767E+03  d E =-.338383E-02
       N       E                     dE             d eps       ncg     rms          rms(c)
DAV:   1    -0.389802072789E+03   -0.41478E-03   -0.27633E-02  7936   0.231E-01    0.338E-02
RMM:   2    -0.389802164905E+03   -0.92116E-04   -0.66751E-04  7967   0.372E-02    0.729E-02
RMM:   3    -0.389802145508E+03    0.19397E-04   -0.51973E-05  6145   0.977E-03    0.542E-02
RMM:   4    -0.389802170759E+03   -0.25251E-04   -0.15822E-05  4343   0.538E-03    0.791E-02
RMM:   5    -0.389802128223E+03    0.42536E-04   -0.90242E-06  4143   0.447E-03    0.173E-02
RMM:   6    -0.389802130436E+03   -0.22130E-05   -0.52590E-06  4049   0.343E-03
  37 F= -.38980213E+03 E0= -.38978818E+03  d E =-.478509E-03
       N       E                     dE             d eps       ncg     rms          rms(c)
DAV:   1    -0.389802684351E+03   -0.55613E-03   -0.24917E-01  7840   0.694E-01    0.832E-02
RMM:   2    -0.389803233298E+03   -0.54895E-03   -0.54821E-03  7984   0.107E-01    0.105E-01
RMM:   3    -0.389803322205E+03   -0.88907E-04   -0.33169E-04  8008   0.237E-02    0.167E-01
RMM:   4    -0.389803378331E+03   -0.56125E-04   -0.12070E-04  7643   0.131E-02    0.191E-01
RMM:   5    -0.389803125869E+03    0.25246E-03   -0.64354E-05  7093   0.102E-02    0.461E-02
RMM:   6    -0.389803144812E+03   -0.18943E-04   -0.63030E-05  7152   0.102E-02    0.623E-02
RMM:   7    -0.389803127000E+03    0.17812E-04   -0.40784E-05  5600   0.863E-03    0.393E-02
RMM:   8    -0.389803119235E+03    0.77644E-05   -0.15662E-05  4256   0.580E-03
  38 F= -.38980312E+03 E0= -.38978920E+03  d E =-.146731E-02
       N       E                     dE             d eps       ncg     rms          rms(c)
DAV:   1    -0.389801246461E+03    0.18805E-02   -0.99670E-01  7840   0.139E+00    0.161E-01
RMM:   2    -0.389803573473E+03   -0.23270E-02   -0.22179E-02  7986   0.215E-01    0.238E-01
RMM:   3    -0.389804148817E+03   -0.57534E-03   -0.12761E-03  8125   0.454E-02    0.392E-01
RMM:   4    -0.389803240969E+03    0.90785E-03   -0.47177E-04  7918   0.272E-02    0.182E-01
RMM:   5    -0.389803112530E+03    0.12844E-03   -0.24955E-04  7853   0.201E-02    0.135E-01
RMM:   6    -0.389803089810E+03    0.22721E-04   -0.20948E-04  7851   0.183E-02    0.118E-01
RMM:   7    -0.389803028784E+03    0.61025E-04   -0.16637E-04  7838   0.165E-02    0.701E-02
RMM:   8    -0.389802998423E+03    0.30361E-04   -0.62553E-05  6969   0.103E-02    0.352E-02
RMM:   9    -0.389802988698E+03    0.97247E-05   -0.12355E-05  4192   0.497E-03
  39 F= -.38980299E+03 E0= -.38978916E+03  d E =-.133677E-02
       N       E                     dE             d eps       ncg     rms          rms(c)
DAV:   1    -0.389803576320E+03   -0.57790E-03   -0.14937E-02  8000   0.164E-01    0.397E-02
RMM:   2    -0.389803672286E+03   -0.95966E-04   -0.81907E-04  7896   0.317E-02    0.678E-02
RMM:   3    -0.389803668375E+03    0.39112E-05   -0.48009E-05  5410   0.875E-03
  40 F= -.38980367E+03 E0= -.38978981E+03  d E =-.679676E-03
       N       E                     dE             d eps       ncg     rms          rms(c)
DAV:   1    -0.389803879984E+03   -0.20770E-03   -0.23907E-02  7888   0.212E-01    0.104E-01
RMM:   2    -0.389811252734E+03   -0.73728E-02   -0.26199E-03  7930   0.606E-02    0.101E+00
RMM:   3    -0.389803962172E+03    0.72906E-02   -0.98939E-04  7854   0.366E-02    0.146E-01
RMM:   4    -0.389803927742E+03    0.34430E-04   -0.11832E-04  7782   0.142E-02    0.696E-02
RMM:   5    -0.389803908621E+03    0.19122E-04   -0.67895E-05  5599   0.102E-02    0.418E-02
RMM:   6    -0.389803903665E+03    0.49562E-05   -0.33340E-05  4947   0.811E-03
  41 F= -.38980390E+03 E0= -.38979007E+03  d E =-.914966E-03
       N       E                     dE             d eps       ncg     rms          rms(c)
DAV:   1    -0.389804282355E+03   -0.37373E-03   -0.15547E-02  7936   0.174E-01    0.361E-02
RMM:   2    -0.389804547729E+03   -0.26537E-03   -0.39832E-04  7885   0.296E-02    0.186E-01
RMM:   3    -0.389804360562E+03    0.18717E-03   -0.69725E-05  7071   0.105E-02    0.925E-02
RMM:   4    -0.389804312733E+03    0.47828E-04   -0.27374E-05  4841   0.689E-03    0.419E-02
RMM:   5    -0.389804306600E+03    0.61338E-05   -0.82688E-06  4095   0.425E-03
  42 F= -.38980431E+03 E0= -.38979040E+03  d E =-.402935E-03
       N       E                     dE             d eps       ncg     rms          rms(c)
DAV:   1    -0.389804994522E+03   -0.68179E-03   -0.13981E-01  7840   0.519E-01    0.682E-02
RMM:   2    -0.389805258512E+03   -0.26399E-03   -0.26730E-03  7895   0.802E-02    0.885E-02
RMM:   3    -0.389805290185E+03   -0.31673E-04   -0.18222E-04  7932   0.180E-02    0.114E-01
RMM:   4    -0.389805418600E+03   -0.12841E-03   -0.89260E-05  7328   0.112E-02    0.178E-01
RMM:   5    -0.389805209301E+03    0.20930E-03   -0.60396E-05  6956   0.971E-03    0.589E-02
RMM:   6    -0.389805214447E+03   -0.51463E-05   -0.39950E-05  5600   0.833E-03
  43 F= -.38980521E+03 E0= -.38979125E+03  d E =-.131078E-02
       N       E                     dE             d eps       ncg     rms          rms(c)
DAV:   1    -0.389804654822E+03    0.55448E-03   -0.55869E-01  7840   0.104E+00    0.136E-01
RMM:   2    -0.389805772180E+03   -0.11174E-02   -0.10813E-02  7895   0.161E-01    0.189E-01
RMM:   3    -0.389805861011E+03   -0.88831E-04   -0.80074E-04  7953   0.378E-02    0.232E-01
RMM:   4    -0.389806238504E+03   -0.37749E-03   -0.29137E-04  7951   0.202E-02    0.321E-01
RMM:   5    -0.389805548326E+03    0.69018E-03   -0.24262E-04  7855   0.189E-02    0.115E-01
RMM:   6    -0.389805551552E+03   -0.32253E-05   -0.14091E-04  7830   0.147E-02    0.954E-02
RMM:   7    -0.389805509981E+03    0.41570E-04   -0.99613E-05  7742   0.127E-02    0.498E-02
RMM:   8    -0.389805497798E+03    0.12184E-04   -0.24275E-05  4514   0.678E-03    0.297E-02
RMM:   9    -0.389805493222E+03    0.45751E-05   -0.86357E-06  4080   0.434E-03
  44 F= -.38980549E+03 E0= -.38979147E+03  d E =-.158956E-02
       N       E                     dE             d eps       ncg     rms          rms(c)
DAV:   1    -0.389806127534E+03   -0.62974E-03   -0.36078E-02  7888   0.245E-01    0.495E-02
RMM:   2    -0.389806219522E+03   -0.91988E-04   -0.99409E-04  7878   0.392E-02    0.680E-02
RMM:   3    -0.389806302020E+03   -0.82498E-04   -0.83400E-05  6783   0.109E-02    0.131E-01
RMM:   4    -0.389806217924E+03    0.84096E-04   -0.41624E-05  5548   0.813E-03    0.765E-02
RMM:   5    -0.389806189658E+03    0.28266E-04   -0.28049E-05  4619   0.729E-03    0.351E-02
RMM:   6    -0.389806193542E+03   -0.38840E-05   -0.17553E-05  4373   0.581E-03
  45 F= -.38980619E+03 E0= -.38979214E+03  d E =-.700320E-03
       N       E                     dE             d eps       ncg     rms          rms(c)
DAV:   1    -0.389806267504E+03   -0.77845E-04   -0.11067E-02  7888   0.137E-01    0.323E-02
RMM:   2    -0.389806314211E+03   -0.46708E-04   -0.33573E-04  7810   0.231E-02    0.605E-02
RMM:   3    -0.389806293358E+03    0.20853E-04   -0.33137E-05  4820   0.774E-03    0.367E-02
RMM:   4    -0.389806317448E+03   -0.24090E-04   -0.14789E-05  4346   0.522E-03    0.655E-02
RMM:   5    -0.389806294496E+03    0.22952E-04   -0.75528E-06  4147   0.382E-03    0.365E-02
RMM:   6    -0.389806289718E+03    0.47787E-05   -0.67032E-06  4106   0.366E-03
  46 F= -.38980629E+03 E0= -.38979225E+03  d E =-.796495E-03
       N       E                     dE             d eps       ncg     rms          rms(c)
DAV:   1    -0.389806429672E+03   -0.13518E-03   -0.69788E-02  7840   0.368E-01    0.618E-02
RMM:   2    -0.389806688322E+03   -0.25865E-03   -0.27915E-03  7928   0.566E-02    0.614E-02
RMM:   3    -0.389806673104E+03    0.15218E-04   -0.15344E-04  7840   0.150E-02    0.837E-02
RMM:   4    -0.389806640924E+03    0.32180E-04   -0.41748E-05  5365   0.855E-03    0.513E-02
RMM:   5    -0.389806696283E+03   -0.55359E-04   -0.29552E-05  4874   0.713E-03    0.101E-01
RMM:   6    -0.389806636676E+03    0.59607E-04   -0.20498E-05  4519   0.588E-03    0.482E-02
RMM:   7    -0.389806628499E+03    0.81765E-05   -0.19025E-05  4415   0.610E-03
  47 F= -.38980663E+03 E0= -.38979264E+03  d E =-.338781E-03
       N       E                     dE             d eps       ncg     rms          rms(c)
DAV:   1    -0.389806623133E+03    0.13542E-04   -0.58240E-05  7136   0.154E-02    0.123E-02
RMM:   2    -0.389806674287E+03   -0.51154E-04   -0.18764E-05  4436   0.597E-03    0.839E-02
RMM:   3    -0.389806630811E+03    0.43476E-04   -0.94424E-06  4167   0.430E-03    0.368E-02
RMM:   4    -0.389806623117E+03    0.76942E-05   -0.30121E-06  3951   0.248E-03
  48 F= -.38980662E+03 E0= -.38979261E+03  d E =-.333400E-03
       N       E                     dE             d eps       ncg     rms          rms(c)
DAV:   1    -0.389806951100E+03   -0.32029E-03   -0.44845E-02  7856   0.294E-01    0.492E-02
RMM:   2    -0.389807051770E+03   -0.10067E-03   -0.11377E-03  7893   0.437E-02    0.473E-02
RMM:   3    -0.389807080507E+03   -0.28737E-04   -0.73468E-05  6750   0.112E-02    0.854E-02
RMM:   4    -0.389807090388E+03   -0.98815E-05   -0.28007E-05  4818   0.690E-03
  49 F= -.38980709E+03 E0= -.38979306E+03  d E =-.467271E-03
       N       E                     dE             d eps       ncg     rms          rms(c)
DAV:   1    -0.389806955267E+03    0.12524E-03   -0.40362E-01  7840   0.883E-01    0.163E-01
RMM:   2    -0.389809079787E+03   -0.21245E-02   -0.10519E-02  7905   0.133E-01    0.440E-01
RMM:   3    -0.389808475766E+03    0.60402E-03   -0.89115E-04  7953   0.369E-02    0.359E-01
RMM:   4    -0.389807869131E+03    0.60663E-03   -0.43208E-04  7897   0.258E-02    0.215E-01
RMM:   5    -0.389807659129E+03    0.21000E-03   -0.23217E-04  7827   0.197E-02    0.884E-02
RMM:   6    -0.389807718284E+03   -0.59155E-04   -0.19392E-04  7825   0.173E-02    0.107E-01
RMM:   7    -0.389807651061E+03    0.67223E-04   -0.10149E-04  7696   0.127E-02    0.556E-02
RMM:   8    -0.389807641646E+03    0.94152E-05   -0.38952E-05  5612   0.833E-03
  50 F= -.38980764E+03 E0= -.38979363E+03  d E =-.101853E-02
       N       E                     dE             d eps       ncg     rms          rms(c)
DAV:   1    -0.389808130808E+03   -0.47975E-03   -0.80116E-02  7840   0.393E-01    0.579E-02
RMM:   2    -0.389808500487E+03   -0.36968E-03   -0.20479E-03  7906   0.563E-02    0.169E-01
RMM:   3    -0.389808426762E+03    0.73725E-04   -0.14710E-04  7829   0.155E-02    0.145E-01
RMM:   4    -0.389808312548E+03    0.11421E-03   -0.52726E-05  6400   0.907E-03    0.750E-02
RMM:   5    -0.389808288683E+03    0.23864E-04   -0.20306E-05  4392   0.648E-03    0.329E-02
RMM:   6    -0.389808290593E+03   -0.19098E-05   -0.14597E-05  4302   0.557E-03
  51 F= -.38980829E+03 E0= -.38979435E+03  d E =-.648947E-03
       N       E                     dE             d eps       ncg     rms          rms(c)
DAV:   1    -0.389808424453E+03   -0.13577E-03   -0.72021E-01  7840   0.118E+00    0.157E-01
RMM:   2    -0.389810095177E+03   -0.16707E-02   -0.17399E-02  7904   0.163E-01    0.176E-01
RMM:   3    -0.389810449249E+03   -0.35407E-03   -0.93574E-04  7925   0.398E-02    0.317E-01
RMM:   4    -0.389810681409E+03   -0.23216E-03   -0.36317E-04  7899   0.226E-02    0.362E-01
RMM:   5    -0.389809784571E+03    0.89684E-03   -0.21678E-04  7827   0.183E-02    0.858E-02
RMM:   6    -0.389809890692E+03   -0.10612E-03   -0.20752E-04  7835   0.181E-02    0.118E-01
RMM:   7    -0.389809821739E+03    0.68953E-04   -0.13244E-04  7800   0.147E-02    0.659E-02
RMM:   8    -0.389809794492E+03    0.27247E-04   -0.33755E-05  5257   0.777E-03    0.319E-02
RMM:   9    -0.389809789102E+03    0.53899E-05   -0.88361E-06  4103   0.420E-03
  52 F= -.38980979E+03 E0= -.38979582E+03  d E =-.214746E-02
       N       E                     dE             d eps       ncg     rms          rms(c)
DAV:   1    -0.389805223728E+03    0.45708E-02   -0.28883E+00  7840   0.235E+00    0.307E-01
RMM:   2    -0.389811715195E+03   -0.64915E-02   -0.70273E-02  7910   0.327E-01    0.266E-01
RMM:   3    -0.389814469377E+03   -0.27542E-02   -0.35418E-03  7927   0.772E-02    0.730E-01
RMM:   4    -0.389812900100E+03    0.15693E-02   -0.12883E-03  7934   0.431E-02    0.559E-01
RMM:   5    -0.389810895323E+03    0.20048E-02   -0.74600E-04  7876   0.339E-02    0.201E-01
RMM:   6    -0.389811156608E+03   -0.26129E-03   -0.82227E-04  7876   0.359E-02    0.212E-01
RMM:   7    -0.389810838698E+03    0.31791E-03   -0.48876E-04  7861   0.285E-02    0.782E-02
RMM:   8    -0.389810797756E+03    0.40942E-04   -0.90998E-05  7746   0.123E-02    0.427E-02
RMM:   9    -0.389810790145E+03    0.76109E-05   -0.17494E-05  4348   0.572E-03
  53 F= -.38981079E+03 E0= -.38979680E+03  d E =-.314850E-02
       N       E                     dE             d eps       ncg     rms          rms(c)
DAV:   1    -0.389810886045E+03   -0.88289E-04   -0.41878E-03  7984   0.903E-02    0.243E-02
RMM:   2    -0.389811011825E+03   -0.12578E-03   -0.16606E-04  7644   0.161E-02    0.127E-01
RMM:   3    -0.389810921995E+03    0.89830E-04   -0.29434E-05  4888   0.693E-03    0.669E-02
RMM:   4    -0.389810896521E+03    0.25474E-04   -0.11726E-05  4253   0.478E-03    0.216E-02
RMM:   5    -0.389810896782E+03   -0.26096E-06   -0.43980E-06  3976   0.301E-03
  54 F= -.38981090E+03 E0= -.38979690E+03  d E =-.106637E-03
       N       E                     dE             d eps       ncg     rms          rms(c)
DAV:   1    -0.389811145300E+03   -0.24878E-03   -0.37198E-02  7840   0.267E-01    0.380E-02
RMM:   2    -0.389811232633E+03   -0.87334E-04   -0.93260E-04  7868   0.373E-02    0.402E-02
RMM:   3    -0.389811233392E+03   -0.75845E-06   -0.45019E-05  5283   0.917E-03
  55 F= -.38981123E+03 E0= -.38979728E+03  d E =-.443247E-03
       N       E                     dE             d eps       ncg     rms          rms(c)
DAV:   1    -0.389811526166E+03   -0.29353E-03   -0.14883E-01  7840   0.534E-01    0.114E-01
RMM:   2    -0.389820438844E+03   -0.89127E-02   -0.51564E-03  7892   0.880E-02    0.109E+00
RMM:   3    -0.389811684195E+03    0.87546E-02   -0.11263E-03  7886   0.403E-02    0.897E-02
RMM:   4    -0.389811784847E+03   -0.10065E-03   -0.13364E-04  7798   0.155E-02    0.813E-02
RMM:   5    -0.389811763152E+03    0.21695E-04   -0.66519E-05  6977   0.105E-02    0.587E-02
RMM:   6    -0.389811785582E+03   -0.22430E-04   -0.59569E-05  6850   0.995E-03    0.755E-02
RMM:   7    -0.389811762539E+03    0.23043E-04   -0.34781E-05  5214   0.793E-03    0.403E-02
RMM:   8    -0.389811751939E+03    0.10600E-04   -0.12892E-05  4178   0.524E-03    0.158E-02
RMM:   9    -0.389811750682E+03    0.12567E-05   -0.30454E-06  4075   0.258E-03
  56 F= -.38981175E+03 E0= -.38979776E+03  d E =-.960537E-03
       N       E                     dE             d eps       ncg     rms          rms(c)
DAV:   1    -0.389811178828E+03    0.57311E-03   -0.59519E-01  7840   0.107E+00    0.141E-01
RMM:   2    -0.389812503406E+03   -0.13246E-02   -0.14834E-02  7899   0.149E-01    0.115E-01
RMM:   3    -0.389812572110E+03   -0.68704E-04   -0.69089E-04  7941   0.342E-02    0.199E-01
RMM:   4    -0.389812446746E+03    0.12536E-03   -0.20341E-04  7866   0.188E-02    0.145E-01
RMM:   5    -0.389812638299E+03   -0.19155E-03   -0.12311E-04  7589   0.127E-02    0.219E-01
RMM:   6    -0.389812399432E+03    0.23887E-03   -0.16007E-04  7809   0.155E-02    0.104E-01
RMM:   7    -0.389812338378E+03    0.61054E-04   -0.11129E-04  7745   0.135E-02    0.424E-02
RMM:   8    -0.389812323407E+03    0.14971E-04   -0.25132E-05  4566   0.687E-03    0.144E-02
RMM:   9    -0.389812322921E+03    0.48547E-06   -0.43281E-06  4042   0.304E-03
  57 F= -.38981232E+03 E0= -.38979832E+03  d E =-.153278E-02
       N       E                     dE             d eps       ncg     rms          rms(c)
DAV:   1    -0.389812589784E+03   -0.26638E-03   -0.19556E-03  8000   0.606E-02    0.141E-02
RMM:   2    -0.389812603895E+03   -0.14110E-04   -0.68794E-05  4852   0.102E-02    0.360E-02
RMM:   3    -0.389812597497E+03    0.63979E-05   -0.81179E-06  4074   0.443E-03
  58 F= -.38981260E+03 E0= -.38979860E+03  d E =-.274576E-03
       N       E                     dE             d eps       ncg     rms          rms(c)
DAV:   1    -0.389813256901E+03   -0.65301E-03   -0.17585E-02  7888   0.182E-01    0.495E-02
RMM:   2    -0.389814585460E+03   -0.13286E-02   -0.77711E-04  7898   0.338E-02    0.424E-01
RMM:   3    -0.389813265892E+03    0.13196E-02   -0.18255E-04  7788   0.163E-02    0.495E-02
RMM:   4    -0.389813300020E+03   -0.34128E-04   -0.29382E-05  4961   0.757E-03    0.546E-02
RMM:   5    -0.389813284269E+03    0.15751E-04   -0.16348E-05  4302   0.566E-03    0.232E-02
RMM:   6    -0.389813286896E+03   -0.26268E-05   -0.10559E-05  4222   0.454E-03
  59 F= -.38981329E+03 E0= -.38979926E+03  d E =-.963975E-03
       N       E                     dE             d eps       ncg     rms          rms(c)
DAV:   1    -0.389813952124E+03   -0.66785E-03   -0.69843E-02  7840   0.362E-01    0.698E-02
RMM:   2    -0.389814152320E+03   -0.20020E-03   -0.22418E-03  7933   0.553E-02    0.659E-02
RMM:   3    -0.389814508998E+03   -0.35668E-03   -0.18855E-04  7846   0.164E-02    0.240E-01
RMM:   4    -0.389814165282E+03    0.34372E-03   -0.87398E-05  7208   0.110E-02    0.104E-01
RMM:   5    -0.389814098280E+03    0.67003E-04   -0.39791E-05  5489   0.841E-03    0.306E-02
RMM:   6    -0.389814114758E+03   -0.16479E-04   -0.31477E-05  4772   0.725E-03    0.494E-02
RMM:   7    -0.389814098710E+03    0.16049E-04   -0.14778E-05  4267   0.573E-03    0.143E-02
RMM:   8    -0.389814099186E+03   -0.47610E-06   -0.43628E-06  4002   0.306E-03
  60 F= -.38981410E+03 E0= -.38980010E+03  d E =-.177626E-02
       N       E                     dE             d eps       ncg     rms          rms(c)
DAV:   1    -0.389812897094E+03    0.12016E-02   -0.27973E-01  7840   0.724E-01    0.135E-01
RMM:   2    -0.389813665470E+03   -0.76838E-03   -0.89807E-03  7936   0.111E-01    0.118E-01
RMM:   3    -0.389814056871E+03   -0.39140E-03   -0.63888E-04  7905   0.313E-02    0.290E-01
RMM:   4    -0.389814143937E+03   -0.87066E-04   -0.28871E-04  7863   0.199E-02    0.307E-01
RMM:   5    -0.389813474159E+03    0.66978E-03   -0.15596E-04  7804   0.152E-02    0.733E-02
RMM:   6    -0.389813511827E+03   -0.37668E-04   -0.12530E-04  7738   0.136E-02    0.718E-02
RMM:   7    -0.389813477665E+03    0.34162E-04   -0.61530E-05  6771   0.101E-02    0.342E-02
RMM:   8    -0.389813474964E+03    0.27009E-05   -0.16029E-05  4304   0.563E-03
  61 F= -.38981347E+03 E0= -.38979950E+03  d E =-.115204E-02
       N       E                     dE             d eps       ncg     rms          rms(c)
DAV:   1    -0.389813952084E+03   -0.47442E-03   -0.14054E-01  7840   0.515E-01    0.954E-02
RMM:   2    -0.389814430780E+03   -0.47870E-03   -0.45151E-03  7941   0.788E-02    0.143E-01
RMM:   3    -0.389814747379E+03   -0.31660E-03   -0.34062E-04  7886   0.221E-02    0.271E-01
RMM:   4    -0.389814385852E+03    0.36153E-03   -0.17051E-04  7831   0.158E-02    0.157E-01
RMM:   5    -0.389814244701E+03    0.14115E-03   -0.99932E-05  7768   0.125E-02    0.572E-02
RMM:   6    -0.389814254587E+03   -0.98854E-05   -0.61482E-05  6684   0.973E-03
  62 F= -.38981425E+03 E0= -.38980024E+03  d E =-.193167E-02
       N       E                     dE             d eps       ncg     rms          rms(c)
DAV:   1    -0.389814647121E+03   -0.40242E-03   -0.15190E-02  7840   0.165E-01    0.483E-02
RMM:   2    -0.389815022630E+03   -0.37551E-03   -0.64903E-04  7927   0.330E-02    0.222E-01
RMM:   3    -0.389814759861E+03    0.26277E-03   -0.10589E-04  7612   0.125E-02    0.123E-01
RMM:   4    -0.389814670998E+03    0.88864E-04   -0.36910E-05  5356   0.789E-03    0.432E-02
RMM:   5    -0.389814663717E+03    0.72809E-05   -0.21563E-05  4390   0.624E-03
  63 F= -.38981466E+03 E0= -.38980068E+03  d E =-.409130E-03
       N       E                     dE             d eps       ncg     rms          rms(c)
DAV:   1    -0.389814811032E+03   -0.14003E-03   -0.23661E-02  7840   0.205E-01    0.620E-02
RMM:   2    -0.389815034769E+03   -0.22374E-03   -0.96265E-04  7933   0.399E-02    0.169E-01
RMM:   3    -0.389814975954E+03    0.58816E-04   -0.12434E-04  7813   0.139E-02    0.144E-01
RMM:   4    -0.389814868148E+03    0.10781E-03   -0.48452E-05  6120   0.848E-03    0.768E-02
RMM:   5    -0.389814840972E+03    0.27176E-04   -0.41458E-05  5083   0.845E-03    0.462E-02
RMM:   6    -0.389814842095E+03   -0.11227E-05   -0.34000E-05  4920   0.815E-03
  64 F= -.38981484E+03 E0= -.38980092E+03  d E =-.587508E-03
       N       E                     dE             d eps       ncg     rms          rms(c)
DAV:   1    -0.389814939715E+03   -0.98743E-04   -0.37891E-03  7976   0.908E-02    0.308E-02
RMM:   2    -0.389815067929E+03   -0.12821E-03   -0.19096E-04  7834   0.182E-02    0.133E-01
RMM:   3    -0.389815010906E+03    0.57023E-04   -0.48269E-05  6180   0.863E-03    0.998E-02
RMM:   4    -0.389814945171E+03    0.65735E-04   -0.16949E-05  4364   0.548E-03    0.262E-02
RMM:   5    -0.389814944335E+03    0.83582E-06   -0.58643E-06  3975   0.348E-03
  65 F= -.38981494E+03 E0= -.38980095E+03  d E =-.102240E-03
       N       E                     dE             d eps       ncg     rms          rms(c)
DAV:   1    -0.389815151464E+03   -0.20629E-03   -0.33873E-02  7888   0.264E-01    0.455E-02
RMM:   2    -0.389815241401E+03   -0.89937E-04   -0.83701E-04  7885   0.379E-02    0.606E-02
RMM:   3    -0.389815318899E+03   -0.77498E-04   -0.68563E-05  6712   0.106E-02    0.127E-01
RMM:   4    -0.389815232619E+03    0.86280E-04   -0.29980E-05  4937   0.710E-03    0.619E-02
RMM:   5    -0.389815213185E+03    0.19434E-04   -0.17555E-05  4360   0.610E-03    0.290E-02
RMM:   6    -0.389815219549E+03   -0.63642E-05   -0.13574E-05  4303   0.518E-03
  66 F= -.38981522E+03 E0= -.38980121E+03  d E =-.377455E-03
       N       E                     dE             d eps       ncg     rms          rms(c)
DAV:   1    -0.389815338661E+03   -0.12548E-03   -0.50761E-03  7888   0.101E-01    0.217E-02
RMM:   2    -0.389815375429E+03   -0.36768E-04   -0.16596E-04  7533   0.170E-02    0.598E-02
RMM:   3    -0.389815352362E+03    0.23068E-04   -0.19949E-05  4386   0.633E-03    0.275E-02
RMM:   4    -0.389815355681E+03   -0.33192E-05   -0.55511E-06  4078   0.335E-03
  67 F= -.38981536E+03 E0= -.38980139E+03  d E =-.136132E-03
       N       E                     dE             d eps       ncg     rms          rms(c)
DAV:   1    -0.389815568423E+03   -0.21606E-03   -0.45958E-02  7856   0.299E-01    0.475E-02
RMM:   2    -0.389815793421E+03   -0.22500E-03   -0.12382E-03  7926   0.452E-02    0.136E-01
RMM:   3    -0.389815688096E+03    0.10533E-03   -0.75259E-05  6703   0.111E-02    0.754E-02
RMM:   4    -0.389815671461E+03    0.16635E-04   -0.31036E-05  4850   0.767E-03    0.539E-02
RMM:   5    -0.389815664219E+03    0.72419E-05   -0.20330E-05  4419   0.662E-03
  68 F= -.38981566E+03 E0= -.38980168E+03  d E =-.444670E-03
       N       E                     dE             d eps       ncg     rms          rms(c)
DAV:   1    -0.389815505620E+03    0.16584E-03   -0.18336E-01  7840   0.599E-01    0.967E-02
RMM:   2    -0.389816046807E+03   -0.54119E-03   -0.49347E-03  7933   0.904E-02    0.152E-01
RMM:   3    -0.389815913088E+03    0.13372E-03   -0.33830E-04  7894   0.241E-02    0.105E-01
RMM:   4    -0.389816116682E+03   -0.20359E-03   -0.12868E-04  7826   0.141E-02    0.195E-01
RMM:   5    -0.389815916171E+03    0.20051E-03   -0.71103E-05  6895   0.997E-03    0.106E-01
RMM:   6    -0.389815878510E+03    0.37662E-04   -0.67542E-05  7208   0.104E-02    0.630E-02
RMM:   7    -0.389815865504E+03    0.13006E-04   -0.45404E-05  5861   0.866E-03    0.400E-02
RMM:   8    -0.389815856676E+03    0.88280E-05   -0.20536E-05  4329   0.657E-03
  69 F= -.38981586E+03 E0= -.38980189E+03  d E =-.637126E-03
       N       E                     dE             d eps       ncg     rms          rms(c)
DAV:   1    -0.389815895254E+03   -0.29751E-04   -0.72774E-04  8000   0.397E-02    0.146E-02
RMM:   2    -0.389815921962E+03   -0.26708E-04   -0.40226E-05  4905   0.867E-03    0.623E-02
RMM:   3    -0.389815900266E+03    0.21696E-04   -0.11254E-05  4142   0.521E-03    0.226E-02
RMM:   4    -0.389815898104E+03    0.21615E-05   -0.19782E-06  3943   0.200E-03
  70 F= -.38981590E+03 E0= -.38980191E+03  d E =-.414285E-04
       N       E                     dE             d eps       ncg     rms          rms(c)
DAV:   1    -0.389816004908E+03   -0.10464E-03   -0.65549E-03  7888   0.115E-01    0.174E-02
RMM:   2    -0.389816028848E+03   -0.23940E-04   -0.18480E-04  6618   0.169E-02    0.340E-02
RMM:   3    -0.389816033158E+03   -0.43104E-05   -0.11789E-05  4220   0.493E-03
  71 F= -.38981603E+03 E0= -.38980205E+03  d E =-.176482E-03
       N       E                     dE             d eps       ncg     rms          rms(c)
DAV:   1    -0.389816079067E+03   -0.50220E-04   -0.20160E-04  7904   0.252E-02    0.218E-02
RMM:   2    -0.389816290828E+03   -0.21176E-03   -0.69129E-05  6889   0.105E-02    0.171E-01
RMM:   3    -0.389816096175E+03    0.19465E-03   -0.35379E-05  5288   0.726E-03    0.583E-02
RMM:   4    -0.389816079142E+03    0.17033E-04   -0.81679E-06  4166   0.400E-03    0.108E-02
RMM:   5    -0.389816080105E+03   -0.96243E-06   -0.30484E-06  3943   0.230E-03
  72 F= -.38981608E+03 E0= -.38980210E+03  d E =-.469470E-04
       N       E                     dE             d eps       ncg     rms          rms(c)
DAV:   1    -0.389816216278E+03   -0.13714E-03   -0.17807E-03  7888   0.535E-02    0.177E-02
RMM:   2    -0.389816303929E+03   -0.87651E-04   -0.10316E-04  5844   0.119E-02    0.106E-01
RMM:   3    -0.389816220765E+03    0.83164E-04   -0.11989E-05  4182   0.482E-03    0.193E-02
RMM:   4    -0.389816221956E+03   -0.11917E-05   -0.54865E-06  4027   0.326E-03
  73 F= -.38981622E+03 E0= -.38980223E+03  d E =-.188798E-03
       N       E                     dE             d eps       ncg     rms          rms(c)
DAV:   1    -0.389816255884E+03   -0.35120E-04   -0.12190E-04  7912   0.166E-02    0.170E-02
RMM:   2    -0.389816297870E+03   -0.41985E-04   -0.30759E-05  5034   0.741E-03    0.811E-02
RMM:   3    -0.389816267853E+03    0.30017E-04   -0.15437E-05  4295   0.568E-03    0.448E-02
RMM:   4    -0.389816254070E+03    0.13783E-04   -0.29859E-06  3957   0.233E-03    0.969E-03
RMM:   5    -0.389816253988E+03    0.81629E-07   -0.84408E-07  2550   0.147E-03
  74 F= -.38981625E+03 E0= -.38980228E+03  d E =-.320320E-04
       N       E                     dE             d eps       ncg     rms          rms(c)
DAV:   1    -0.389816340179E+03   -0.86109E-04   -0.10587E-03  7840   0.425E-02    0.126E-02
RMM:   2    -0.389816349688E+03   -0.95099E-05   -0.49061E-05  4792   0.852E-03
  75 F= -.38981635E+03 E0= -.38980240E+03  d E =-.127732E-03
       N       E                     dE             d eps       ncg     rms          rms(c)
DAV:   1    -0.389816383474E+03   -0.43296E-04   -0.22230E-04  7928   0.252E-02    0.341E-02
RMM:   2    -0.389817741680E+03   -0.13582E-02   -0.23910E-04  7731   0.171E-02    0.434E-01
RMM:   3    -0.389816347069E+03    0.13946E-02   -0.15674E-04  7622   0.144E-02    0.185E-02
RMM:   4    -0.389816377427E+03   -0.30358E-04   -0.92720E-06  4304   0.471E-03    0.177E-02
RMM:   5    -0.389816375941E+03    0.14859E-05   -0.25383E-06  4108   0.230E-03
  76 F= -.38981638E+03 E0= -.38980239E+03  d E =-.262525E-04
       N       E                     dE             d eps       ncg     rms          rms(c)
DAV:   1    -0.389816462936E+03   -0.85509E-04   -0.18375E-03  7872   0.559E-02    0.158E-02
RMM:   2    -0.389816498652E+03   -0.35716E-04   -0.64296E-05  5373   0.104E-02    0.689E-02
RMM:   3    -0.389816473353E+03    0.25299E-04   -0.91914E-06  4089   0.442E-03    0.350E-02
RMM:   4    -0.389816466223E+03    0.71306E-05   -0.38796E-06  3983   0.283E-03
[...]
RMM:   8    -0.389823444763E+03    0.48044E-05   -0.91929E-06  4095   0.428E-03
  93 F= -.38982344E+03 E0= -.38980950E+03  d E =-.177806E-02
       N       E                     dE             d eps       ncg     rms          rms(c)
DAV:   1    -0.389821080347E+03    0.23692E-02   -0.15521E+00  7840   0.170E+00    0.227E-01
RMM:   2    -0.389824815388E+03   -0.37350E-02   -0.40891E-02  7928   0.220E-01    0.169E-01
RMM:   3    -0.389826193163E+03   -0.13778E-02   -0.15521E-03  7918   0.485E-02    0.522E-01
RMM:   4    -0.389824810442E+03    0.13827E-02   -0.50827E-04  7925   0.273E-02    0.286E-01
RMM:   5    -0.389824454835E+03    0.35561E-03   -0.33357E-04  7858   0.226E-02    0.176E-01
RMM:   6    -0.389824521372E+03   -0.66537E-04   -0.42442E-04  7868   0.260E-02    0.149E-01
RMM:   7    -0.389824356806E+03    0.16457E-03   -0.21932E-04  7829   0.192E-02    0.494E-02
RMM:   8    -0.389824341311E+03    0.15495E-04   -0.36410E-05  5415   0.788E-03    0.293E-02
RMM:   9    -0.389824335628E+03    0.56830E-05   -0.84918E-06  4110   0.432E-03
  94 F= -.38982434E+03 E0= -.38981038E+03  d E =-.266892E-02
       N       E                     dE             d eps       ncg     rms          rms(c)
DAV:   1    -0.389824662863E+03   -0.32155E-03   -0.15129E-01  7840   0.528E-01    0.720E-02
RMM:   2    -0.389825046080E+03   -0.38322E-03   -0.38361E-03  7904   0.674E-02    0.854E-02
RMM:   3    -0.389825255814E+03   -0.20973E-03   -0.18586E-04  7863   0.167E-02    0.203E-01
RMM:   4    -0.389825075479E+03    0.18033E-03   -0.78705E-05  7106   0.106E-02    0.129E-01
RMM:   5    -0.389824978037E+03    0.97442E-04   -0.38351E-05  5444   0.835E-03    0.327E-02
RMM:   6    -0.389825013338E+03   -0.35300E-04   -0.44122E-05  5813   0.866E-03    0.569E-02
RMM:   7    -0.389824987001E+03    0.26336E-04   -0.22387E-05  4445   0.695E-03    0.134E-02
RMM:   8    -0.389824987562E+03   -0.56076E-06   -0.35925E-06  4004   0.267E-03
  95 F= -.38982499E+03 E0= -.38981104E+03  d E =-.651934E-03
       N       E                     dE             d eps       ncg     rms          rms(c)
DAV:   1    -0.389824008067E+03    0.97893E-03   -0.13586E+00  7840   0.158E+00    0.209E-01
RMM:   2    -0.389827057906E+03   -0.30498E-02   -0.34026E-02  7921   0.200E-01    0.140E-01
RMM:   3    -0.389827030295E+03    0.27611E-04   -0.10178E-03  7925   0.392E-02    0.235E-01
RMM:   4    -0.389826842027E+03    0.18827E-03   -0.31138E-04  7916   0.230E-02    0.164E-01
RMM:   5    -0.389828061246E+03   -0.12192E-02   -0.33516E-04  7844   0.205E-02    0.437E-01
RMM:   6    -0.389826853482E+03    0.12078E-02   -0.38238E-04  7845   0.240E-02    0.129E-01
RMM:   7    -0.389826747730E+03    0.10575E-03   -0.12544E-04  7798   0.147E-02    0.267E-02
RMM:   8    -0.389826744748E+03    0.29821E-05   -0.12494E-05  4225   0.474E-03
  96 F= -.38982674E+03 E0= -.38981282E+03  d E =-.240912E-02
       N       E                     dE             d eps       ncg     rms          rms(c)
DAV:   1    -0.389818275935E+03    0.84718E-02   -0.54281E+00  7840   0.316E+00    0.422E-01
RMM:   2    -0.389830769283E+03   -0.12493E-01   -0.13800E-01  7921   0.401E-01    0.294E-01
RMM:   3    -0.389832046363E+03   -0.12771E-02   -0.45152E-03  7914   0.828E-02    0.655E-01
RMM:   4    -0.389831525583E+03    0.52078E-03   -0.14576E-03  7943   0.473E-02    0.586E-01
RMM:   5    -0.389829935410E+03    0.15902E-02   -0.91466E-04  7880   0.358E-02    0.354E-01
RMM:   6    -0.389829824038E+03    0.11137E-03   -0.13036E-03  7882   0.456E-02    0.218E-01
RMM:   7    -0.389829482908E+03    0.34113E-03   -0.50580E-04  7873   0.293E-02    0.990E-02
RMM:   8    -0.389829442282E+03    0.40625E-04   -0.89113E-05  7749   0.119E-02    0.650E-02
RMM:   9    -0.389829413953E+03    0.28329E-04   -0.24079E-05  4490   0.670E-03    0.298E-02
RMM:  10    -0.389829408017E+03    0.59354E-05   -0.93637E-06  4117   0.460E-03
  97 F= -.38982941E+03 E0= -.38981548E+03  d E =-.507239E-02
       N       E                     dE             d eps       ncg     rms          rms(c)
DAV:   1    -0.389783753762E+03    0.45660E-01   -0.21629E+01  7840   0.632E+00    0.869E-01
RMM:   2    -0.389836344160E+03   -0.52590E-01   -0.57849E-01  7915   0.804E-01    0.599E-01
RMM:   3    -0.389841869624E+03   -0.55255E-02   -0.18389E-02  7918   0.165E-01    0.133E+00
RMM:   4    -0.389838746687E+03    0.31229E-02   -0.56873E-03  7943   0.931E-02    0.115E+00
RMM:   5    -0.389832826690E+03    0.59200E-02   -0.37191E-03  7885   0.727E-02    0.719E-01
RMM:   6    -0.389832293964E+03    0.53273E-03   -0.49030E-03  7884   0.879E-02    0.454E-01
RMM:   7    -0.389830902816E+03    0.13911E-02   -0.25222E-03  7893   0.653E-02    0.171E-01
RMM:   8    -0.389830820335E+03    0.82481E-04   -0.40205E-04  7861   0.256E-02    0.147E-01
RMM:   9    -0.389830670259E+03    0.15008E-03   -0.11268E-04  7782   0.139E-02    0.656E-02
RMM:  10    -0.389830652718E+03    0.17542E-04   -0.39175E-05  5508   0.825E-03    0.432E-02
RMM:  11    -0.389830654097E+03   -0.13795E-05   -0.47487E-05  5109   0.883E-03
  98 F= -.38983065E+03 E0= -.38981672E+03  d E =-.631847E-02
       N       E                     dE             d eps       ncg     rms          rms(c)
DAV:   1    -0.389825688595E+03    0.49641E-02   -0.25736E+00  7840   0.219E+00    0.283E-01
RMM:   2    -0.389831560315E+03   -0.58717E-02   -0.64015E-02  7916   0.275E-01    0.224E-01
RMM:   3    -0.389834764950E+03   -0.32046E-02   -0.26899E-03  7913   0.635E-02    0.756E-01
RMM:   4    -0.389831690045E+03    0.30749E-02   -0.94390E-04  7929   0.369E-02    0.385E-01
RMM:   5    -0.389830866772E+03    0.82327E-03   -0.55550E-04  7870   0.294E-02    0.175E-01
RMM:   6    -0.389831359191E+03   -0.49242E-03   -0.69733E-04  7880   0.329E-02    0.273E-01
RMM:   7    -0.389830824900E+03    0.53429E-03   -0.38988E-04  7853   0.256E-02    0.525E-02
RMM:   8    -0.389830811097E+03    0.13803E-04   -0.35156E-05  5394   0.780E-03    0.282E-02
RMM:   9    -0.389830805539E+03    0.55586E-05   -0.95072E-06  4192   0.425E-03
  99 F= -.38983081E+03 E0= -.38981689E+03  d E =-.646991E-02
       N       E                     dE             d eps       ncg     rms          rms(c)
DAV:   1    -0.389828432267E+03    0.23788E-02   -0.22600E+00  7840   0.205E+00    0.279E-01
RMM:   2    -0.389833535540E+03   -0.51033E-02   -0.56981E-02  7911   0.255E-01    0.215E-01
RMM:   3    -0.389836505642E+03   -0.29701E-02   -0.23356E-03  7914   0.588E-02    0.728E-01
RMM:   4    -0.389833482709E+03    0.30229E-02   -0.82483E-04  7915   0.348E-02    0.335E-01
RMM:   5    -0.389833018178E+03    0.46453E-03   -0.52889E-04  7863   0.285E-02    0.208E-01
RMM:   6    -0.389833057726E+03   -0.39549E-04   -0.54031E-04  7867   0.290E-02    0.163E-01
RMM:   7    -0.389832903089E+03    0.15464E-03   -0.29613E-04  7840   0.222E-02    0.855E-02
RMM:   8    -0.389832867989E+03    0.35100E-04   -0.74440E-05  7278   0.111E-02    0.563E-02
RMM:   9    -0.389832848333E+03    0.19656E-04   -0.16185E-05  4303   0.555E-03    0.234E-02
RMM:  10    -0.389832844724E+03    0.36091E-05   -0.55971E-06  4058   0.345E-03
 100 F= -.38983284E+03 E0= -.38981897E+03  d E =-.203918E-02
       N       E                     dE             d eps       ncg     rms          rms(c)
DAV:   1    -0.389828385676E+03    0.44627E-02   -0.28559E+00  7840   0.229E+00    0.317E-01
RMM:   2    -0.389834863379E+03   -0.64777E-02   -0.72464E-02  7909   0.286E-01    0.218E-01
RMM:   3    -0.389836439433E+03   -0.15761E-02   -0.23962E-03  7915   0.592E-02    0.585E-01
RMM:   4    -0.389834783410E+03    0.16560E-02   -0.73270E-04  7932   0.330E-02    0.346E-01
RMM:   5    -0.389834588793E+03    0.19462E-03   -0.71993E-04  7876   0.327E-02    0.299E-01
RMM:   6    -0.389834407460E+03    0.18133E-03   -0.66183E-04  7869   0.323E-02    0.197E-01
RMM:   7    -0.389834193908E+03    0.21355E-03   -0.37082E-04  7848   0.246E-02    0.888E-02
RMM:   8    -0.389834136693E+03    0.57215E-04   -0.88957E-05  7419   0.120E-02    0.425E-02
RMM:   9    -0.389834126428E+03    0.10266E-04   -0.15002E-05  4294   0.536E-03    0.255E-02
RMM:  10    -0.389834123366E+03    0.30623E-05   -0.55519E-06  4069   0.346E-03
 101 F= -.38983412E+03 E0= -.38982025E+03  d E =-.331783E-02
       N       E                     dE             d eps       ncg     rms          rms(c)
DAV:   1    -0.389809978039E+03    0.24148E-01   -0.11399E+01  7840   0.457E+00    0.647E-01
RMM:   2    -0.389836633211E+03   -0.26655E-01   -0.29733E-01  7909   0.570E-01    0.453E-01
RMM:   3    -0.389843485643E+03   -0.68524E-02   -0.10042E-02  7908   0.120E-01    0.122E+00
RMM:   4    -0.389836407926E+03    0.70777E-02   -0.30995E-03  7941   0.678E-02    0.721E-01
RMM:   5    -0.389835154639E+03    0.12533E-02   -0.27532E-03  7879   0.638E-02    0.586E-01
RMM:   6    -0.389834399030E+03    0.75561E-03   -0.25693E-03  7887   0.635E-02    0.354E-01
RMM:   7    -0.389833844325E+03    0.55470E-03   -0.15645E-03  7873   0.504E-02    0.217E-01
RMM:   8    -0.389833551683E+03    0.29264E-03   -0.45045E-04  7855   0.272E-02    0.105E-01
RMM:   9    -0.389833485536E+03    0.66147E-04   -0.94188E-05  7746   0.124E-02    0.623E-02
RMM:  10    -0.389833461930E+03    0.23606E-04   -0.26998E-05  4624   0.705E-03    0.351E-02
RMM:  11    -0.389833459820E+03    0.21107E-05   -0.15737E-05  4295   0.563E-03
 102 F= -.38983346E+03 E0= -.38981962E+03  d E =-.265428E-02
       N       E                     dE             d eps       ncg     rms          rms(c)
DAV:   1    -0.389830986359E+03    0.24756E-02   -0.74587E-01  7888   0.112E+00    0.242E-01
RMM:   2    -0.389833652990E+03   -0.26666E-02   -0.30343E-02  7931   0.187E-01    0.183E-01
RMM:   3    -0.389834588467E+03   -0.93548E-03   -0.21761E-03  8022   0.538E-02    0.457E-01
RMM:   4    -0.389834766392E+03   -0.17792E-03   -0.82515E-04  7917   0.336E-02    0.494E-01
RMM:   5    -0.389833180774E+03    0.15856E-02   -0.58008E-04  7860   0.292E-02    0.175E-01
RMM:   6    -0.389833293946E+03   -0.11317E-03   -0.43614E-04  7873   0.260E-02    0.196E-01
RMM:   7    -0.389833028694E+03    0.26525E-03   -0.20277E-04  7821   0.184E-02    0.644E-02
RMM:   8    -0.389833006868E+03    0.21826E-04   -0.42413E-05  5859   0.858E-03    0.376E-02
RMM:   9    -0.389833005963E+03    0.90455E-06   -0.15505E-05  4311   0.535E-03
 103 F= -.38983301E+03 E0= -.38981920E+03  d E =0.453856E-03
       N       E                     dE             d eps       ncg     rms          rms(c)
DAV:   1    -0.389834803363E+03   -0.17965E-02   -0.20492E-01  7888   0.584E-01    0.129E-01
RMM:   2    -0.389835561256E+03   -0.75789E-03   -0.84437E-03  7936   0.982E-02    0.121E-01
RMM:   3    -0.389835772589E+03   -0.21133E-03   -0.60410E-04  8028   0.286E-02    0.242E-01
RMM:   4    -0.389836139786E+03   -0.36720E-03   -0.28000E-04  7855   0.194E-02    0.330E-01
RMM:   5    -0.389835384718E+03    0.75507E-03   -0.16757E-04  7801   0.157E-02    0.733E-02
RMM:   6    -0.389835434054E+03   -0.49336E-04   -0.12768E-04  7818   0.144E-02    0.795E-02
RMM:   7    -0.389835383879E+03    0.50175E-04   -0.51670E-05  6602   0.958E-03    0.292E-02
RMM:   8    -0.389835383180E+03    0.69856E-06   -0.89355E-06  4152   0.415E-03
 104 F= -.38983538E+03 E0= -.38982156E+03  d E =-.192336E-02
       N       E                     dE             d eps       ncg     rms          rms(c)
DAV:   1    -0.389836420787E+03   -0.10369E-02   -0.40594E-01  7840   0.840E-01    0.184E-01
RMM:   2    -0.389837359171E+03   -0.93838E-03   -0.96482E-03  7903   0.138E-01    0.236E-01
RMM:   3    -0.389838565116E+03   -0.12059E-02   -0.90888E-04  7915   0.374E-02    0.485E-01
RMM:   4    -0.389837283736E+03    0.12814E-02   -0.50427E-04  7886   0.268E-02    0.235E-01
RMM:   5    -0.389837129992E+03    0.15374E-03   -0.42069E-04  7853   0.259E-02    0.181E-01
RMM:   6    -0.389837038413E+03    0.91579E-04   -0.28642E-04  7833   0.212E-02    0.131E-01
RMM:   7    -0.389836906314E+03    0.13210E-03   -0.13634E-04  7790   0.148E-02    0.481E-02
RMM:   8    -0.389836900458E+03    0.58568E-05   -0.37824E-05  5517   0.814E-03
 105 F= -.38983690E+03 E0= -.38982311E+03  d E =-.151728E-02
       N       E                     dE             d eps       ncg     rms          rms(c)
DAV:   1    -0.389836893078E+03    0.13236E-04   -0.58373E-04  8048   0.367E-02    0.235E-02
RMM:   2    -0.389837004624E+03   -0.11155E-03   -0.72033E-05  7107   0.115E-02    0.122E-01
RMM:   3    -0.389836942802E+03    0.61822E-04   -0.32138E-05  5024   0.718E-03    0.800E-02
RMM:   4    -0.389836899268E+03    0.43534E-04   -0.10528E-05  4197   0.436E-03    0.150E-02
RMM:   5    -0.389836902245E+03   -0.29773E-05   -0.32974E-06  3972   0.251E-03
 106 F= -.38983690E+03 E0= -.38982306E+03  d E =-.151907E-02
       N       E                     dE             d eps       ncg     rms          rms(c)
DAV:   1    -0.389837525558E+03   -0.62629E-03   -0.10425E-01  7888   0.436E-01    0.467E-02
RMM:   2    -0.389837699382E+03   -0.17382E-03   -0.16770E-03  7888   0.680E-02    0.703E-02
RMM:   3    -0.389837687064E+03    0.12318E-04   -0.12038E-04  7967   0.149E-02    0.584E-02
RMM:   4    -0.389837764354E+03   -0.77290E-04   -0.36499E-05  5262   0.762E-03    0.120E-01
RMM:   5    -0.389837673813E+03    0.90541E-04   -0.22811E-05  4642   0.644E-03    0.481E-02
RMM:   6    -0.389837668131E+03    0.56816E-05   -0.16525E-05  4322   0.580E-03
 107 F= -.38983767E+03 E0= -.38982382E+03  d E =-.765886E-03
       N       E                     dE             d eps       ncg     rms          rms(c)
DAV:   1    -0.389837704537E+03   -0.30724E-04   -0.33928E-01  7856   0.788E-01    0.900E-02
RMM:   2    -0.389838270891E+03   -0.56635E-03   -0.53972E-03  7893   0.122E-01    0.132E-01
RMM:   3    -0.389838284524E+03   -0.13633E-04   -0.41598E-04  8043   0.274E-02    0.144E-01
RMM:   4    -0.389838450250E+03   -0.16573E-03   -0.13749E-04  7796   0.138E-02    0.210E-01
RMM:   5    -0.389838154115E+03    0.29614E-03   -0.96873E-05  7718   0.122E-02    0.812E-02
RMM:   6    -0.389838138065E+03    0.16050E-04   -0.53670E-05  6523   0.947E-03    0.457E-02
RMM:   7    -0.389838132779E+03    0.52854E-05   -0.56533E-05  6631   0.997E-03
 108 F= -.38983813E+03 E0= -.38982426E+03  d E =-.123053E-02
       N       E                     dE             d eps       ncg     rms          rms(c)
DAV:   1    -0.389838557895E+03   -0.41983E-03   -0.16151E-01  7856   0.545E-01    0.534E-02
RMM:   2    -0.389838958846E+03   -0.40095E-03   -0.24241E-03  7890   0.837E-02    0.171E-01
RMM:   3    -0.389838852590E+03    0.10626E-03   -0.20846E-04  7946   0.195E-02    0.116E-01
RMM:   4    -0.389838788434E+03    0.64156E-04   -0.42561E-05  5661   0.843E-03    0.698E-02
RMM:   5    -0.389838763723E+03    0.24711E-04   -0.23351E-05  4492   0.689E-03    0.446E-02
RMM:   6    -0.389838756955E+03    0.67682E-05   -0.14411E-05  4160   0.575E-03
 109 F= -.38983876E+03 E0= -.38982486E+03  d E =-.624176E-03
       N       E                     dE             d eps       ncg     rms          rms(c)
DAV:   1    -0.389837887732E+03    0.87599E-03   -0.14567E+00  7840   0.164E+00    0.137E-01
RMM:   2    -0.389840086975E+03   -0.21992E-02   -0.20179E-02  7880   0.246E-01    0.249E-01
RMM:   3    -0.389839795761E+03    0.29121E-03   -0.13649E-03  8515   0.504E-02    0.126E-01
RMM:   4    -0.389840264895E+03   -0.46913E-03   -0.30468E-04  7923   0.221E-02    0.298E-01
RMM:   5    -0.389839770513E+03    0.49438E-03   -0.15170E-04  7792   0.145E-02    0.162E-01
RMM:   6    -0.389839688161E+03    0.82352E-04   -0.16327E-04  7836   0.161E-02    0.105E-01
RMM:   7    -0.389839639744E+03    0.48418E-04   -0.24904E-04  7854   0.201E-02    0.686E-02
RMM:   8    -0.389839622602E+03    0.17142E-04   -0.10003E-04  7766   0.128E-02    0.437E-02
RMM:   9    -0.389839611374E+03    0.11228E-04   -0.17652E-05  4350   0.581E-03    0.273E-02
RMM:  10    -0.389839607322E+03    0.40522E-05   -0.54357E-06  4058   0.355E-03
 110 F= -.38983961E+03 E0= -.38982574E+03  d E =-.147454E-02
       N       E                     dE             d eps       ncg     rms          rms(c)
DAV:   1    -0.389839216339E+03    0.39504E-03   -0.21531E-01  7840   0.651E-01    0.881E-02
RMM:   2    -0.389839858870E+03   -0.64253E-03   -0.65722E-03  7961   0.106E-01    0.102E-01
RMM:   3    -0.389839809379E+03    0.49492E-04   -0.36403E-04  8010   0.243E-02    0.114E-01
RMM:   4    -0.389839778388E+03    0.30990E-04   -0.10393E-04  7690   0.130E-02    0.102E-01
RMM:   5    -0.389839803402E+03   -0.25014E-04   -0.43224E-05  5792   0.786E-03    0.121E-01
RMM:   6    -0.389839728458E+03    0.74944E-04   -0.59824E-05  6804   0.969E-03    0.638E-02
RMM:   7    -0.389839699748E+03    0.28710E-04   -0.45198E-05  5738   0.898E-03    0.311E-02
RMM:   8    -0.389839694217E+03    0.55306E-05   -0.12789E-05  4209   0.531E-03
 111 F= -.38983969E+03 E0= -.38982583E+03  d E =-.868955E-04
       N       E                     dE             d eps       ncg     rms          rms(c)
DAV:   1    -0.389839760742E+03   -0.60994E-04   -0.40103E-02  7904   0.282E-01    0.378E-02
RMM:   2    -0.389839912516E+03   -0.15177E-03   -0.12193E-03  7942   0.458E-02    0.812E-02
RMM:   3    -0.389839883938E+03    0.28579E-04   -0.66968E-05  6319   0.107E-02    0.635E-02
RMM:   4    -0.389839889204E+03   -0.52666E-05   -0.18232E-05  4409   0.581E-03
 112 F= -.38983989E+03 E0= -.38982602E+03  d E =-.281883E-03
       N       E                     dE             d eps       ncg     rms          rms(c)
DAV:   1    -0.389839945837E+03   -0.61900E-04   -0.37153E-02  7872   0.262E-01    0.380E-02
RMM:   2    -0.389840131172E+03   -0.18534E-03   -0.75428E-04  7900   0.425E-02    0.138E-01
RMM:   3    -0.389840071789E+03    0.59383E-04   -0.88481E-05  7646   0.123E-02    0.100E-01
RMM:   4    -0.389840006154E+03    0.65635E-04   -0.17553E-05  4404   0.567E-03    0.350E-02
RMM:   5    -0.389840002858E+03    0.32963E-05   -0.97021E-06  4082   0.452E-03
 113 F= -.38984000E+03 E0= -.38982613E+03  d E =-.113653E-03
       N       E                     dE             d eps       ncg     rms          rms(c)
DAV:   1    -0.389839985995E+03    0.20159E-04   -0.94084E-02  7840   0.416E-01    0.522E-02
RMM:   2    -0.389840161962E+03   -0.17597E-03   -0.15960E-03  7905   0.640E-02    0.835E-02
RMM:   3    -0.389840137453E+03    0.24509E-04   -0.12292E-04  7799   0.150E-02    0.696E-02
RMM:   4    -0.389840213767E+03   -0.76314E-04   -0.39465E-05  5541   0.787E-03    0.124E-01
RMM:   5    -0.389840115408E+03    0.98359E-04   -0.26285E-05  4774   0.692E-03    0.496E-02
RMM:   6    -0.389840111084E+03    0.43246E-05   -0.20657E-05  4410   0.651E-03
 114 F= -.38984011E+03 E0= -.38982624E+03  d E =-.221879E-03
       N       E                     dE             d eps       ncg     rms          rms(c)
DAV:   1    -0.389840143276E+03   -0.27867E-04   -0.22093E-02  7888   0.210E-01    0.371E-02
RMM:   2    -0.389840243342E+03   -0.10007E-03   -0.86564E-04  7922   0.349E-02    0.573E-02
RMM:   3    -0.389840264082E+03   -0.20740E-04   -0.55458E-05  5937   0.954E-03    0.909E-02
RMM:   4    -0.389840224038E+03    0.40044E-04   -0.18782E-05  4433   0.578E-03    0.548E-02
RMM:   5    -0.389840206403E+03    0.17635E-04   -0.12377E-05  4254   0.502E-03    0.267E-02
RMM:   6    -0.389840204397E+03    0.20058E-05   -0.87139E-06  4123   0.426E-03
 115 F= -.38984020E+03 E0= -.38982634E+03  d E =-.933130E-04
       N       E                     dE             d eps       ncg     rms          rms(c)
DAV:   1    -0.389840202951E+03    0.34520E-05   -0.30979E-04  8000   0.270E-02    0.187E-02
RMM:   2    -0.389840239717E+03   -0.36767E-04   -0.57123E-05  6279   0.991E-03    0.689E-02
RMM:   3    -0.389840202979E+03    0.36738E-04   -0.19694E-05  4340   0.630E-03    0.182E-02
RMM:   4    -0.389840202124E+03    0.85552E-06   -0.31914E-06  3937   0.241E-03
 116 F= -.38984020E+03 E0= -.38982631E+03  d E =-.910401E-04
