<?xml version="1.0" encoding="ISO-8859-1"?>
<modeling>
 <generator>
  <i name="program" type="string">vasp </i>
  <i name="version" type="string">5.4.4.18Apr17-6-g9f103f2a35  </i>
  <i name="subversion" type="string">(build May 23 2022 10:35:18) complex            parallel </i>
  <i name="platform" type="string">IFC18_impi </i>
  <i name="date" type="string">2023 06 20 </i>
  <i name="time" type="string">00:53:22 </i>
 </generator>
 <incar>
  <i type="string" name="SYSTEM"> Pt</i>
  <i type="int" name="ISTART">     0</i>
  <i type="string" name="PREC">med   normal | accurate</i>
  <i type="string" name="ALGO">  Fast    Normal, Fast, Very_Fast</i>
  <i type="int" name="ICHARG">     2</i>
  <i type="int" name="INIWAV">     1</i>
  <i type="int" name="NELM">   100</i>
  <i type="int" name="IBRION">     2</i>
  <i name="EDIFF">      0.00001000</i>
  <i type="int" name="NSW">   200</i>
  <i type="int" name="ISIF">     1</i>
  <i type="int" name="ISYM">     0</i>
  <i name="ENCUT">    400.00000000</i>
  <i type="string" name="LREAL">  Auto     real-space projection (.FALSE</i>
  <i type="int" name="ISMEAR">     1</i>
  <i name="SIGMA">      0.10000000</i>
  <i type="int" name="NWRITE">     2</i>
  <i type="logical" name="LWAVE"> F  </i>
  <i type="logical" name="LCHARG"> F  </i>
  <i type="logical" name="LAECHG"> F  </i>
  <v type="int" name="KPOINT_BSE">    -1     0     0     0</v>
  <i type="int" name="NELM">   100</i>
 </incar>
 <structure name="primitive_cell" >
  <crystal>
   <varray name="basis" >
    <v>      11.21440000       0.00000000       0.00000000 </v>
    <v>       5.60720000       9.71195529       0.00000000 </v>
    <v>       0.00000000       0.00000000      31.44560000 </v>
   </varray>
   <i name="volume">   3424.85826052 </i>
   <varray name="rec_basis" >
    <v>       0.08917107      -0.05148294       0.00000000 </v>
    <v>       0.00000000       0.10296588       0.00000000 </v>
    <v>       0.00000000       0.00000000       0.03180095 </v>
   </varray>
  </crystal>
  <varray name="positions" >
   <v>       0.08333000       0.33333000       0.39081000 </v>
   <v>       0.16667000       0.16667000       0.46360000 </v>
   <v>      -0.08333000       0.41667000       0.46360000 </v>
   <v>       0.16667000       0.41667000       0.46360000 </v>
   <v>       0.33333000       0.08333000       0.39081000 </v>
   <v>      -0.16667000      -0.41667000       0.39081000 </v>
   <v>       0.33333000       0.33333000       0.39081000 </v>
   <v>      -0.16667000       0.33333000       0.39081000 </v>
   <v>       0.08333000       0.08333000       0.39081000 </v>
   <v>       0.08333000      -0.41667000       0.39081000 </v>
   <v>      -0.08333000       0.16667000       0.46360000 </v>
   <v>       0.41667000       0.16667000       0.46360000 </v>
   <v>      -0.08333000      -0.33333000       0.46360000 </v>
   <v>       0.25124544       0.25014567      -0.46459727 </v>
   <v>       0.00021312       0.49964261      -0.46433149 </v>
   <v>      -0.00241333       0.25023974      -0.46454174 </v>
   <v>       0.16667000      -0.08333000       0.46360000 </v>
   <v>      -0.33333000       0.41667000       0.46360000 </v>
   <v>       0.41667000      -0.08333000       0.46360000 </v>
   <v>      -0.33333000      -0.33333000       0.46360000 </v>
   <v>       0.33333000      -0.16667000       0.39081000 </v>
   <v>      -0.41667000      -0.41667000       0.39081000 </v>
   <v>      -0.41667000       0.08333000       0.39081000 </v>
   <v>      -0.16667000       0.08333000       0.39081000 </v>
   <v>       0.33333000      -0.41667000       0.39081000 </v>
   <v>      -0.16667000      -0.16667000       0.39081000 </v>
   <v>       0.16667000      -0.33333000       0.46360000 </v>
   <v>       0.41667000       0.41667000       0.46360000 </v>
   <v>       0.24976547       0.00026160      -0.46437823 </v>
   <v>       0.24921678      -0.49972313      -0.46420736 </v>
   <v>      -0.24982753      -0.49979363      -0.46427422 </v>
   <v>       0.08333000      -0.16667000       0.39081000 </v>
   <v>      -0.41667000       0.33333000       0.39081000 </v>
   <v>      -0.41667000      -0.16667000       0.39081000 </v>
   <v>      -0.49995058       0.00185336      -0.46450939 </v>
   <v>      -0.00263672       0.00224308      -0.46446138 </v>
   <v>       0.00062992      -0.25012121      -0.46428536 </v>
   <v>      -0.25047974      -0.24993491      -0.46426741 </v>
   <v>      -0.33333000       0.16667000       0.46360000 </v>
   <v>      -0.08333000      -0.08333000       0.46360000 </v>
   <v>      -0.33333000      -0.08333000       0.46360000 </v>
   <v>      -0.49919059       0.25249805      -0.46128075 </v>
   <v>      -0.25497274       0.25318133      -0.46084822 </v>
   <v>       0.08328945       0.33279480      -0.39136670 </v>
   <v>       0.41667000      -0.33333000       0.46360000 </v>
   <v>       0.25045697      -0.25020165      -0.46490157 </v>
   <v>      -0.49997312      -0.25050307      -0.46463498 </v>
   <v>       0.32766440       0.33337582      -0.39058249 </v>
   <v>       0.33322154       0.08361023      -0.39120645 </v>
   <v>      -0.16684715      -0.41626903      -0.39117037 </v>
   <v>       0.08153259       0.08424770      -0.39106036 </v>
   <v>       0.08159291      -0.41557319      -0.39097390 </v>
   <v>      -0.16415787       0.33419446      -0.39042924 </v>
   <v>      -0.49973948       0.49855567      -0.46143042 </v>
   <v>      -0.25045046       0.00059417      -0.46447624 </v>
   <v>       0.33244843      -0.16443619      -0.39108801 </v>
   <v>       0.32509522      -0.40826913      -0.39105218 </v>
   <v>      -0.16768275      -0.16492606      -0.39119398 </v>
   <v>      -0.41671827      -0.41074636      -0.39079427 </v>
   <v>      -0.41645328       0.08132727      -0.39058553 </v>
   <v>      -0.16600565       0.08215948      -0.39044797 </v>
   <v>      -0.41753043      -0.16580921      -0.39140787 </v>
   <v>       0.08235011      -0.16492716      -0.39125502 </v>
   <v>      -0.42077988       0.33754482      -0.38027211 </v>
   <v>      -0.34500163       0.36525693      -0.31305651 </v>
   <v>      -0.45976907       0.37955911      -0.32396682 </v>
   <v>      -0.49324479       0.41553435      -0.28925868 </v>
  </varray>
 </structure>
 <varray name="primitive_index" >
  <v type="int" >        1 </v>
  <v type="int" >        7 </v>
  <v type="int" >       38 </v>
  <v type="int" >        8 </v>
  <v type="int" >        4 </v>
  <v type="int" >       52 </v>
  <v type="int" >        3 </v>
  <v type="int" >       35 </v>
  <v type="int" >        2 </v>
  <v type="int" >       18 </v>
  <v type="int" >       37 </v>
  <v type="int" >        5 </v>
  <v type="int" >       53 </v>
  <v type="int" >       10 </v>
  <v type="int" >       59 </v>
  <v type="int" >       44 </v>
  <v type="int" >       24 </v>
  <v type="int" >       40 </v>
  <v type="int" >       22 </v>
  <v type="int" >       55 </v>
  <v type="int" >       19 </v>
  <v type="int" >       50 </v>
  <v type="int" >       34 </v>
  <v type="int" >       36 </v>
  <v type="int" >       20 </v>
  <v type="int" >       51 </v>
  <v type="int" >       23 </v>
  <v type="int" >        6 </v>
  <v type="int" >        9 </v>
  <v type="int" >       25 </v>
  <v type="int" >       57 </v>
  <v type="int" >       17 </v>
  <v type="int" >       33 </v>
  <v type="int" >       49 </v>
  <v type="int" >       11 </v>
  <v type="int" >       43 </v>
  <v type="int" >       60 </v>
  <v type="int" >       58 </v>
  <v type="int" >       39 </v>
  <v type="int" >       54 </v>
  <v type="int" >       56 </v>
  <v type="int" >       12 </v>
  <v type="int" >       42 </v>
  <v type="int" >       13 </v>
  <v type="int" >       21 </v>
  <v type="int" >       26 </v>
  <v type="int" >       28 </v>
  <v type="int" >       15 </v>
  <v type="int" >       16 </v>
  <v type="int" >       64 </v>
  <v type="int" >       14 </v>
  <v type="int" >       30 </v>
  <v type="int" >       47 </v>
  <v type="int" >       27 </v>
  <v type="int" >       41 </v>
  <v type="int" >       31 </v>
  <v type="int" >       32 </v>
  <v type="int" >       63 </v>
  <v type="int" >       62 </v>
  <v type="int" >       46 </v>
  <v type="int" >       48 </v>
  <v type="int" >       61 </v>
  <v type="int" >       29 </v>
  <v type="int" >       45 </v>
  <v type="int" >       67 </v>
  <v type="int" >       66 </v>
  <v type="int" >       65 </v>
 </varray>
 <kpoints>
  <generation param="Gamma">
   <v type="int" name="divisions">       4        4        1 </v>
   <v name="usershift">      0.00000000       0.00000000       0.00000000 </v>
   <v name="genvec1">      0.25000000      -0.00000000       0.00000000 </v>
   <v name="genvec2">      0.00000000       0.25000000       0.00000000 </v>
   <v name="genvec3">      0.00000000       0.00000000       1.00000000 </v>
   <v name="shift">      0.00000000       0.00000000       0.00000000 </v>
  </generation>
  <varray name="kpointlist" >
   <v>       0.00000000       0.00000000       0.00000000 </v>
   <v>       0.25000000       0.00000000       0.00000000 </v>
   <v>       0.50000000       0.00000000       0.00000000 </v>
   <v>       0.00000000       0.25000000       0.00000000 </v>
   <v>       0.25000000       0.25000000       0.00000000 </v>
   <v>       0.50000000       0.25000000       0.00000000 </v>
   <v>      -0.25000000       0.25000000       0.00000000 </v>
   <v>       0.00000000       0.50000000       0.00000000 </v>
   <v>       0.25000000       0.50000000       0.00000000 </v>
   <v>       0.50000000       0.50000000       0.00000000 </v>
  </varray>
  <varray name="weights" >
   <v>       0.06250000 </v>
   <v>       0.12500000 </v>
   <v>       0.06250000 </v>
   <v>       0.12500000 </v>
   <v>       0.12500000 </v>
   <v>       0.12500000 </v>
   <v>       0.12500000 </v>
   <v>       0.06250000 </v>
   <v>       0.12500000 </v>
   <v>       0.06250000 </v>
  </varray>
 </kpoints>
 <parameters>
  <separator name="general" >
   <i type="string" name="SYSTEM">Pt</i>
   <i type="logical" name="LCOMPAT"> F  </i>
  </separator>
  <separator name="electronic" >
   <i type="string" name="PREC">med</i>
   <i name="ENMAX">    400.00000000</i>
   <i name="ENAUG">    644.87300000</i>
   <i name="EDIFF">      0.00001000</i>
   <i type="int" name="IALGO">    68</i>
   <i type="int" name="IWAVPR">    11</i>
   <i type="int" name="NBANDS">   392</i>
   <i name="NELECT">    651.00000000</i>
   <i type="int" name="TURBO">     0</i>
   <i type="int" name="IRESTART">     0</i>
   <i type="int" name="NREBOOT">     0</i>
   <i type="int" name="NMIN">     0</i>
   <i name="EREF">      0.00000000</i>
   <separator name="electronic smearing" >
    <i type="int" name="ISMEAR">     1</i>
    <i name="SIGMA">      0.10000000</i>
    <i name="KSPACING">      0.50000000</i>
    <i type="logical" name="KGAMMA"> T  </i>
   </separator>
   <separator name="electronic projectors" >
    <i type="logical" name="LREAL"> T  </i>
    <v name="ROPT">     -0.00200000     -0.00200000     -0.00200000     -0.00200000</v>
    <i type="int" name="LMAXPAW">  -100</i>
    <i type="int" name="LMAXMIX">     2</i>
    <i type="logical" name="NLSPLINE"> F  </i>
   </separator>
   <separator name="electronic startup" >
    <i type="int" name="ISTART">     0</i>
    <i type="int" name="ICHARG">     2</i>
    <i type="int" name="INIWAV">     1</i>
   </separator>
   <separator name="electronic spin" >
    <i type="int" name="ISPIN">     1</i>
    <i type="logical" name="LNONCOLLINEAR"> F  </i>
    <v name="MAGMOM">      1.00000000      1.00000000      1.00000000      1.00000000      1.00000000      1.00000000      1.00000000      1.00000000      1.00000000      1.00000000      1.00000000      1.00000000      1.00000000      1.00000000      1.00000000      1.00000000      1.00000000      1.00000000      1.00000000      1.00000000
      1.00000000      1.00000000      1.00000000      1.00000000      1.00000000      1.00000000      1.00000000      1.00000000      1.00000000      1.00000000      1.00000000      1.00000000      1.00000000      1.00000000      1.00000000      1.00000000      1.00000000      1.00000000      1.00000000      1.00000000
      1.00000000      1.00000000      1.00000000      1.00000000      1.00000000      1.00000000      1.00000000      1.00000000      1.00000000      1.00000000      1.00000000      1.00000000      1.00000000      1.00000000      1.00000000      1.00000000      1.00000000      1.00000000      1.00000000      1.00000000
      1.00000000      1.00000000      1.00000000      1.00000000      1.00000000      1.00000000      1.00000000</v>
    <i name="NUPDOWN">     -1.00000000</i>
    <i type="logical" name="LSORBIT"> F  </i>
    <v name="SAXIS">      0.00000000      0.00000000      1.00000000</v>
    <i type="logical" name="LSPIRAL"> F  </i>
    <v name="QSPIRAL">      0.00000000      0.00000000      0.00000000</v>
    <i type="logical" name="LZEROZ"> F  </i>
   </separator>
   <separator name="electronic exchange-correlation" >
    <i type="logical" name="LASPH"> F  </i>
    <i type="logical" name="LMETAGGA"> F  </i>
   </separator>
   <separator name="electronic convergence" >
    <i type="int" name="NELM">   100</i>
    <i type="int" name="NELMDL">    -5</i>
    <i type="int" name="NELMIN">     2</i>
    <i name="ENINI">    400.00000000</i>
    <separator name="electronic convergence detail" >
     <i type="logical" name="LDIAG"> T  </i>
     <i type="logical" name="LSUBROT"> F  </i>
     <i name="WEIMIN">      0.00100000</i>
     <i name="EBREAK">      0.00000001</i>
     <i name="DEPER">      0.30000000</i>
     <i type="int" name="NRMM">     4</i>
     <i name="TIME">      0.40000000</i>
    </separator>
   </separator>
   <separator name="electronic mixer" >
    <i name="AMIX">      0.40000000</i>
    <i name="BMIX">      1.00000000</i>
    <i name="AMIN">      0.10000000</i>
    <i name="AMIX_MAG">      1.60000000</i>
    <i name="BMIX_MAG">      1.00000000</i>
    <separator name="electronic mixer details" >
     <i type="int" name="IMIX">     4</i>
     <i type="logical" name="MIXFIRST"> F  </i>
     <i type="int" name="MAXMIX">   -45</i>
     <i name="WC">    100.00000000</i>
     <i type="int" name="INIMIX">     1</i>
     <i type="int" name="MIXPRE">     1</i>
     <i type="int" name="MREMOVE">     5</i>
    </separator>
   </separator>
   <separator name="electronic dipolcorrection" >
    <i type="logical" name="LDIPOL"> F  </i>
    <i type="logical" name="LMONO"> F  </i>
    <i type="int" name="IDIPOL">     0</i>
    <i name="EPSILON">      1.00000000</i>
    <v name="DIPOL">   -100.00000000   -100.00000000   -100.00000000</v>
    <i name="EFIELD">      0.00000000</i>
   </separator>
  </separator>
  <separator name="grids" >
   <i type="int" name="NGX">    56</i>
   <i type="int" name="NGY">    56</i>
   <i type="int" name="NGZ">   160</i>
   <i type="int" name="NGXF">    96</i>
   <i type="int" name="NGYF">    96</i>
   <i type="int" name="NGZF">   270</i>
   <i type="logical" name="ADDGRID"> F  </i>
  </separator>
  <separator name="ionic" >
   <i type="int" name="NSW">   200</i>
   <i type="int" name="IBRION">     2</i>
   <i type="int" name="MDALGO">     0</i>
   <i type="int" name="ISIF">     1</i>
   <i name="PSTRESS">      0.00000000</i>
   <i name="EDIFFG">      0.00010000</i>
   <i type="int" name="NFREE">     1</i>
   <i name="POTIM">      0.50000000</i>
   <i name="SMASS">     -3.00000000</i>
   <i name="SCALEE">      1.00000000</i>
  </separator>
  <separator name="ionic md" >
   <i name="TEBEG">      0.00010000</i>
   <i name="TEEND">      0.00010000</i>
   <i type="int" name="NBLOCK">     1</i>
   <i type="int" name="KBLOCK">   200</i>
   <i type="int" name="NPACO">   256</i>
   <i name="APACO">     16.00000000</i>
  </separator>
  <separator name="symmetry" >
   <i type="int" name="ISYM">     0</i>
   <i name="SYMPREC">      0.00001000</i>
  </separator>
  <separator name="dos" >
   <i type="int" name="LORBIT">     0</i>
   <v name="RWIGS">     -1.00000000     -1.00000000     -1.00000000     -1.00000000</v>
   <i type="int" name="NEDOS">   301</i>
   <i name="EMIN">     10.00000000</i>
   <i name="EMAX">    -10.00000000</i>
   <i name="EFERMI">      0.00000000</i>
  </separator>
  <separator name="writing" >
   <i type="int" name="NWRITE">     2</i>
   <i type="logical" name="LWAVE"> F  </i>
   <i type="logical" name="LDOWNSAMPLE"> F  </i>
   <i type="logical" name="LCHARG"> F  </i>
   <i type="logical" name="LPARD"> F  </i>
   <i type="logical" name="LVTOT"> F  </i>
   <i type="logical" name="LVHAR"> F  </i>
   <i type="logical" name="LELF"> F  </i>
   <i type="logical" name="LOPTICS"> F  </i>
   <v name="STM">      0.00000000      0.00000000      0.00000000      0.00000000      0.00000000      0.00000000      0.00000000</v>
  </separator>
  <separator name="performance" >
   <i type="int" name="NPAR">     8</i>
   <i type="int" name="NSIM">     4</i>
   <i type="int" name="NBLK">    -1</i>
   <i type="logical" name="LPLANE"> T  </i>
   <i type="logical" name="LSCALAPACK"> T  </i>
   <i type="logical" name="LSCAAWARE"> F  </i>
   <i type="logical" name="LSCALU"> F  </i>
   <i type="logical" name="LASYNC"> F  </i>
   <i type="logical" name="LORBITALREAL"> F  </i>
  </separator>
  <separator name="miscellaneous" >
   <i type="int" name="IDIOT">     3</i>
   <i type="int" name="ISPECIAL">     0</i>
   <i type="logical" name="LMUSIC"> F  </i>
   <v name="POMASS">    195.08000000     16.00000000     12.01100000      1.00000000</v>
   <v name="DARWINR">      0.00000000      0.00000000      0.00000000      0.00000000</v>
   <v name="DARWINV">      1.00000000      1.00000000      1.00000000      1.00000000</v>
   <i type="logical" name="LCORR"> T  </i>
  </separator>
  <i type="logical" name="GGA_COMPAT"> T  </i>
  <i type="logical" name="LBERRY"> F  </i>
  <i type="int" name="ICORELEVEL">     0</i>
  <i type="logical" name="LDAU"> F  </i>
  <i type="int" name="I_CONSTRAINED_M">     0</i>
  <separator name="electronic exchange-correlation" >
   <i type="string" name="GGA">--</i>
   <i type="int" name="VOSKOWN">     0</i>
   <i type="logical" name="LHFCALC"> F  </i>
   <i type="string" name="PRECFOCK"></i>
   <i type="logical" name="LSYMGRAD"> F  </i>
   <i type="logical" name="LHFONE"> F  </i>
   <i type="logical" name="LRHFCALC"> F  </i>
   <i type="logical" name="LTHOMAS"> F  </i>
   <i type="logical" name="LMODELHF"> F  </i>
   <i name="ENCUT4O">     -1.00000000</i>
   <i type="int" name="EXXOEP">     0</i>
   <i type="int" name="FOURORBIT">     0</i>
   <i name="AEXX">      0.00000000</i>
   <i name="HFALPHA">      0.00000000</i>
   <i name="MCALPHA">      0.00000000</i>
   <i name="ALDAX">      1.00000000</i>
   <i name="AGGAX">      1.00000000</i>
   <i name="ALDAC">      1.00000000</i>
   <i name="AGGAC">      1.00000000</i>
   <i type="int" name="NKREDX">     1</i>
   <i type="int" name="NKREDY">     1</i>
   <i type="int" name="NKREDZ">     1</i>
   <i type="logical" name="SHIFTRED"> F  </i>
   <i type="logical" name="ODDONLY"> F  </i>
   <i type="logical" name="EVENONLY"> F  </i>
   <i type="int" name="LMAXFOCK">     0</i>
   <i type="int" name="NMAXFOCKAE">     0</i>
   <i type="logical" name="LFOCKAEDFT"> F  </i>
   <i name="HFSCREEN">      0.00000000</i>
   <i name="HFSCREENC">      0.00000000</i>
   <i type="int" name="NBANDSGWLOW">     0</i>
  </separator>
  <separator name="vdW DFT" >
   <i type="logical" name="LUSE_VDW"> F  </i>
   <i name="Zab_VDW">     -0.84910000</i>
   <i name="PARAM1">      0.12340000</i>
   <i name="PARAM2">      1.00000000</i>
   <i name="PARAM3">      0.00000000</i>
  </separator>
  <separator name="model GW" >
   <i type="int" name="MODEL_GW">     0</i>
   <i name="MODEL_EPS0">     30.67037248</i>
   <i name="MODEL_ALPHA">      1.00000000</i>
  </separator>
  <separator name="linear response parameters" >
   <i type="logical" name="LEPSILON"> F  </i>
   <i type="logical" name="LRPA"> F  </i>
   <i type="logical" name="LNABLA"> F  </i>
   <i type="logical" name="LVEL"> F  </i>
   <i type="int" name="KINTER">     0</i>
   <i name="CSHIFT">      0.10000000</i>
   <i name="OMEGAMAX">     -1.00000000</i>
   <i name="DEG_THRESHOLD">      0.00200000</i>
   <i name="RTIME">     -0.10000000</i>
   <i name="WPLASMAI">      0.00000000</i>
   <v name="DFIELD">      0.00000000      0.00000000      0.00000000</v>
   <v name="WPLASMA">      0.00000000      0.00000000      0.00000000      0.00000000      0.00000000      0.00000000      0.00000000      0.00000000      0.00000000</v>
  </separator>
  <separator name="orbital magnetization" >
   <i type="logical" name="NUCIND"> F  </i>
   <v name="MAGPOS">      0.00000000      0.00000000      0.00000000</v>
   <i type="logical" name="LNICSALL"> T  </i>
   <i type="logical" name="ORBITALMAG"> F  </i>
   <i type="logical" name="LMAGBLOCH"> F  </i>
   <i type="logical" name="LCHIMAG"> F  </i>
   <i type="logical" name="LGAUGE"> T  </i>
   <i type="int" name="MAGATOM">     0</i>
   <v name="MAGDIPOL">      0.00000000      0.00000000      0.00000000</v>
   <v name="AVECCONST">      0.00000000      0.00000000      0.00000000</v>
  </separator>
  <separator name="response functions" >
   <i type="logical" name="LADDER"> F  </i>
   <i type="logical" name="LRPAFORCE"> F  </i>
   <i type="logical" name="LFXC"> F  </i>
   <i type="logical" name="LHARTREE"> T  </i>
   <i type="int" name="IBSE">     0</i>
   <v type="int" name="KPOINT">    -1     0     0     0</v>
   <i type="logical" name="LTCTE"> F  </i>
   <i type="logical" name="LTETE"> F  </i>
   <i type="logical" name="LTRIPLET"> F  </i>
   <i type="logical" name="LFXCEPS"> F  </i>
   <i type="logical" name="LFXHEG"> F  </i>
   <i type="int" name="NATURALO">     2</i>
   <i type="logical" name="L2ORDER"> F  </i>
   <i type="logical" name="LMP2LT"> F  </i>
   <i type="logical" name="LUSEW"> F  </i>
   <i name="ENCUTGW">     -2.00000000</i>
   <i name="ENCUTGWSOFT">     -2.00000000</i>
   <i name="ENCUTLF">     -1.00000000</i>
   <i type="int" name="LMAXMP2">    -1</i>
   <i name="SCISSOR">      0.00000000</i>
   <i type="int" name="NOMEGA">     0</i>
   <i type="int" name="NOMEGAR">     0</i>
   <i type="int" name="NBANDSGW">    -1</i>
   <i type="int" name="NBANDSO">    -1</i>
   <i type="int" name="NBANDSV">    -1</i>
   <i type="int" name="NELM">   100</i>
   <i type="int" name="NELMHF">     1</i>
   <i type="int" name="DIM">     3</i>
   <i type="int" name="ANTIRES">     0</i>
   <i name="OMEGAMAX">    -30.00000000</i>
   <i name="OMEGAMIN">    -30.00000000</i>
   <i name="OMEGATL">   -200.00000000</i>
   <i type="int" name="OMEGAGRID">   140</i>
   <i name="CSHIFT">     -0.10000000</i>
   <i type="logical" name="SELFENERGY"> F  </i>
   <i type="logical" name="LSPECTRAL"> F  </i>
   <i type="logical" name="LSPECTRALGW"> F  </i>
   <i type="logical" name="LSINGLES"> F  </i>
   <i type="logical" name="LFERMIGW"> F  </i>
   <i type="logical" name="ODDONLYGW"> F  </i>
   <i type="logical" name="EVENONLYGW"> F  </i>
   <i type="int" name="NKREDLFX">     1</i>
   <i type="int" name="NKREDLFY">     1</i>
   <i type="int" name="NKREDLFZ">     1</i>
   <i type="int" name="MAXMEM">  2800</i>
   <i type="int" name="TELESCOPE">     0</i>
   <i type="int" name="TAUPAR">     1</i>
   <i type="int" name="OMEGAPAR">    -1</i>
   <i name="LAMBDA">      1.00000000</i>
  </separator>
  <separator name="External order field" >
   <i name="OFIELD_KAPPA">      0.00000000</i>
   <v name="OFIELD_K">      0.00000000      0.00000000      0.00000000</v>
   <i name="OFIELD_Q6_NEAR">      0.00000000</i>
   <i name="OFIELD_Q6_FAR">      0.00000000</i>
   <i name="OFIELD_A">      0.00000000</i>
  </separator>
 </parameters>
 <atominfo>
  <atoms>      67 </atoms>
  <types>       4 </types>
  <array name="atoms" >
   <dimension dim="1">ion</dimension>
   <field type="string">element</field>
   <field type="int">atomtype</field>
   <set>
    <rc><c>Pt</c><c>   1</c></rc>
    <rc><c>Pt</c><c>   1</c></rc>
    <rc><c>Pt</c><c>   1</c></rc>
    <rc><c>Pt</c><c>   1</c></rc>
    <rc><c>Pt</c><c>   1</c></rc>
    <rc><c>Pt</c><c>   1</c></rc>
    <rc><c>Pt</c><c>   1</c></rc>
    <rc><c>Pt</c><c>   1</c></rc>
    <rc><c>Pt</c><c>   1</c></rc>
    <rc><c>Pt</c><c>   1</c></rc>
    <rc><c>Pt</c><c>   1</c></rc>
    <rc><c>Pt</c><c>   1</c></rc>
    <rc><c>Pt</c><c>   1</c></rc>
    <rc><c>Pt</c><c>   1</c></rc>
    <rc><c>Pt</c><c>   1</c></rc>
    <rc><c>Pt</c><c>   1</c></rc>
    <rc><c>Pt</c><c>   1</c></rc>
    <rc><c>Pt</c><c>   1</c></rc>
    <rc><c>Pt</c><c>   1</c></rc>
    <rc><c>Pt</c><c>   1</c></rc>
    <rc><c>Pt</c><c>   1</c></rc>
    <rc><c>Pt</c><c>   1</c></rc>
    <rc><c>Pt</c><c>   1</c></rc>
    <rc><c>Pt</c><c>   1</c></rc>
    <rc><c>Pt</c><c>   1</c></rc>
    <rc><c>Pt</c><c>   1</c></rc>
    <rc><c>Pt</c><c>   1</c></rc>
    <rc><c>Pt</c><c>   1</c></rc>
    <rc><c>Pt</c><c>   1</c></rc>
    <rc><c>Pt</c><c>   1</c></rc>
    <rc><c>Pt</c><c>   1</c></rc>
    <rc><c>Pt</c><c>   1</c></rc>
    <rc><c>Pt</c><c>   1</c></rc>
    <rc><c>Pt</c><c>   1</c></rc>
    <rc><c>Pt</c><c>   1</c></rc>
    <rc><c>Pt</c><c>   1</c></rc>
    <rc><c>Pt</c><c>   1</c></rc>
    <rc><c>Pt</c><c>   1</c></rc>
    <rc><c>Pt</c><c>   1</c></rc>
    <rc><c>Pt</c><c>   1</c></rc>
    <rc><c>Pt</c><c>   1</c></rc>
    <rc><c>Pt</c><c>   1</c></rc>
    <rc><c>Pt</c><c>   1</c></rc>
    <rc><c>Pt</c><c>   1</c></rc>
    <rc><c>Pt</c><c>   1</c></rc>
    <rc><c>Pt</c><c>   1</c></rc>
    <rc><c>Pt</c><c>   1</c></rc>
    <rc><c>Pt</c><c>   1</c></rc>
    <rc><c>Pt</c><c>   1</c></rc>
    <rc><c>Pt</c><c>   1</c></rc>
    <rc><c>Pt</c><c>   1</c></rc>
    <rc><c>Pt</c><c>   1</c></rc>
    <rc><c>Pt</c><c>   1</c></rc>
    <rc><c>Pt</c><c>   1</c></rc>
    <rc><c>Pt</c><c>   1</c></rc>
    <rc><c>Pt</c><c>   1</c></rc>
    <rc><c>Pt</c><c>   1</c></rc>
    <rc><c>Pt</c><c>   1</c></rc>
    <rc><c>Pt</c><c>   1</c></rc>
    <rc><c>Pt</c><c>   1</c></rc>
    <rc><c>Pt</c><c>   1</c></rc>
    <rc><c>Pt</c><c>   1</c></rc>
    <rc><c>Pt</c><c>   1</c></rc>
    <rc><c>Pt</c><c>   1</c></rc>
    <rc><c>O </c><c>   2</c></rc>
    <rc><c>C </c><c>   3</c></rc>
    <rc><c>H </c><c>   4</c></rc>
   </set>
  </array>
  <array name="atomtypes" >
   <dimension dim="1">type</dimension>
   <field type="int">atomspertype</field>
   <field type="string">element</field>
   <field>mass</field>
   <field>valence</field>
   <field type="string">pseudopotential</field>
   <set>
    <rc><c>  64</c><c>Pt</c><c>    195.08000000</c><c>     10.00000000</c><c>  PAW_PBE Pt 04Feb2005                  </c></rc>
    <rc><c>   1</c><c>O </c><c>     16.00000000</c><c>      6.00000000</c><c>  PAW_PBE O 08Apr2002                   </c></rc>
    <rc><c>   1</c><c>C </c><c>     12.01100000</c><c>      4.00000000</c><c>  PAW_PBE C 08Apr2002                   </c></rc>
    <rc><c>   1</c><c>H </c><c>      1.00000000</c><c>      1.00000000</c><c>  PAW_PBE H 15Jun2001                   </c></rc>
   </set>
  </array>
 </atominfo>
 <structure name="initialpos" >
  <crystal>
   <varray name="basis" >
    <v>      11.21440000       0.00000000       0.00000000 </v>
    <v>       5.60720000       9.71195529       0.00000000 </v>
    <v>       0.00000000       0.00000000      31.44560000 </v>
   </varray>
   <i name="volume">   3424.85826052 </i>
   <varray name="rec_basis" >
    <v>       0.08917107      -0.05148294       0.00000000 </v>
    <v>       0.00000000       0.10296588       0.00000000 </v>
    <v>       0.00000000       0.00000000       0.03180095 </v>
   </varray>
  </crystal>
  <varray name="positions" >
   <v>       0.08333000       0.33333000       0.39081000 </v>
   <v>       0.08333000       0.08333000       0.39081000 </v>
   <v>       0.33333000       0.33333000       0.39081000 </v>
   <v>       0.33333000       0.08333000       0.39081000 </v>
   <v>       0.41667000       0.16667000       0.46360000 </v>
   <v>       0.41667000       0.41667000       0.46360000 </v>
   <v>       0.16667000       0.16667000       0.46360000 </v>
   <v>       0.16667000       0.41667000       0.46360000 </v>
   <v>       0.24976547       0.00026160       0.53562177 </v>
   <v>       0.25124544       0.25014567       0.53540273 </v>
   <v>       0.50004942       0.00185336       0.53549061 </v>
   <v>       0.50080941       0.25249805       0.53871925 </v>
   <v>       0.08328945       0.33279480       0.60863330 </v>
   <v>       0.08153259       0.08424770       0.60893964 </v>
   <v>       0.32766440       0.33337582       0.60941751 </v>
   <v>       0.33322154       0.08361023       0.60879355 </v>
   <v>       0.08333000       0.83333000       0.39081000 </v>
   <v>       0.08333000       0.58333000       0.39081000 </v>
   <v>       0.33333000       0.83333000       0.39081000 </v>
   <v>       0.33333000       0.58333000       0.39081000 </v>
   <v>       0.41667000       0.66667000       0.46360000 </v>
   <v>       0.41667000       0.91667000       0.46360000 </v>
   <v>       0.16667000       0.66667000       0.46360000 </v>
   <v>       0.16667000       0.91667000       0.46360000 </v>
   <v>       0.24921678       0.50027687       0.53579264 </v>
   <v>       0.25045697       0.74979835       0.53509843 </v>
   <v>       0.50026052       0.49855567       0.53856958 </v>
   <v>       0.50002688       0.74949693       0.53536502 </v>
   <v>       0.08235011       0.83507284       0.60874498 </v>
   <v>       0.08159291       0.58442681       0.60902610 </v>
   <v>       0.33244843       0.83556381       0.60891199 </v>
   <v>       0.32509522       0.59173087       0.60894782 </v>
   <v>       0.58333000       0.33333000       0.39081000 </v>
   <v>       0.58333000       0.08333000       0.39081000 </v>
   <v>       0.83333000       0.33333000       0.39081000 </v>
   <v>       0.83333000       0.08333000       0.39081000 </v>
   <v>       0.91667000       0.16667000       0.46360000 </v>
   <v>       0.91667000       0.41667000       0.46360000 </v>
   <v>       0.66667000       0.16667000       0.46360000 </v>
   <v>       0.66667000       0.41667000       0.46360000 </v>
   <v>       0.74954954       0.00059417       0.53552376 </v>
   <v>       0.74502726       0.25318133       0.53915178 </v>
   <v>       0.99736328       0.00224308       0.53553862 </v>
   <v>       0.99758667       0.25023974       0.53545826 </v>
   <v>       0.57922012       0.33754482       0.61972789 </v>
   <v>       0.58354672       0.08132727       0.60941447 </v>
   <v>       0.83584213       0.33419446       0.60957076 </v>
   <v>       0.83399435       0.08215948       0.60955203 </v>
   <v>       0.58333000       0.83333000       0.39081000 </v>
   <v>       0.58333000       0.58333000       0.39081000 </v>
   <v>       0.83333000       0.83333000       0.39081000 </v>
   <v>       0.83333000       0.58333000       0.39081000 </v>
   <v>       0.91667000       0.66667000       0.46360000 </v>
   <v>       0.91667000       0.91667000       0.46360000 </v>
   <v>       0.66667000       0.66667000       0.46360000 </v>
   <v>       0.66667000       0.91667000       0.46360000 </v>
   <v>       0.75017247       0.50020637       0.53572578 </v>
   <v>       0.74952026       0.75006509       0.53573259 </v>
   <v>       0.00021312       0.49964261       0.53566851 </v>
   <v>       0.00062992       0.74987879       0.53571464 </v>
   <v>       0.58246957       0.83419079       0.60859213 </v>
   <v>       0.58328173       0.58925364       0.60920573 </v>
   <v>       0.83231725       0.83507394       0.60880602 </v>
   <v>       0.83315285       0.58373097       0.60882963 </v>
   <v>       0.50675521       0.41553435       0.71074132 </v>
   <v>       0.54023093       0.37955911       0.67603318 </v>
   <v>       0.65499837       0.36525693       0.68694349 </v>
  </varray>
  <varray name="selective"  type="logical" >
   <v type="logical" >  F  F  F </v>
   <v type="logical" >  F  F  F </v>
   <v type="logical" >  F  F  F </v>
   <v type="logical" >  F  F  F </v>
   <v type="logical" >  F  F  F </v>
   <v type="logical" >  F  F  F </v>
   <v type="logical" >  F  F  F </v>
   <v type="logical" >  F  F  F </v>
   <v type="logical" >  T  T  T </v>
   <v type="logical" >  T  T  T </v>
   <v type="logical" >  T  T  T </v>
   <v type="logical" >  T  T  T </v>
   <v type="logical" >  T  T  T </v>
   <v type="logical" >  T  T  T </v>
   <v type="logical" >  T  T  T </v>
   <v type="logical" >  T  T  T </v>
   <v type="logical" >  F  F  F </v>
   <v type="logical" >  F  F  F </v>
   <v type="logical" >  F  F  F </v>
   <v type="logical" >  F  F  F </v>
   <v type="logical" >  F  F  F </v>
   <v type="logical" >  F  F  F </v>
   <v type="logical" >  F  F  F </v>
   <v type="logical" >  F  F  F </v>
   <v type="logical" >  T  T  T </v>
   <v type="logical" >  T  T  T </v>
   <v type="logical" >  T  T  T </v>
   <v type="logical" >  T  T  T </v>
   <v type="logical" >  T  T  T </v>
   <v type="logical" >  T  T  T </v>
   <v type="logical" >  T  T  T </v>
   <v type="logical" >  T  T  T </v>
   <v type="logical" >  F  F  F </v>
   <v type="logical" >  F  F  F </v>
   <v type="logical" >  F  F  F </v>
   <v type="logical" >  F  F  F </v>
   <v type="logical" >  F  F  F </v>
   <v type="logical" >  F  F  F </v>
   <v type="logical" >  F  F  F </v>
   <v type="logical" >  F  F  F </v>
   <v type="logical" >  T  T  T </v>
   <v type="logical" >  T  T  T </v>
   <v type="logical" >  T  T  T </v>
   <v type="logical" >  T  T  T </v>
   <v type="logical" >  T  T  T </v>
   <v type="logical" >  T  T  T </v>
   <v type="logical" >  T  T  T </v>
   <v type="logical" >  T  T  T </v>
   <v type="logical" >  F  F  F </v>
   <v type="logical" >  F  F  F </v>
   <v type="logical" >  F  F  F </v>
   <v type="logical" >  F  F  F </v>
   <v type="logical" >  F  F  F </v>
   <v type="logical" >  F  F  F </v>
   <v type="logical" >  F  F  F </v>
   <v type="logical" >  F  F  F </v>
   <v type="logical" >  T  T  T </v>
   <v type="logical" >  T  T  T </v>
   <v type="logical" >  T  T  T </v>
   <v type="logical" >  T  T  T </v>
   <v type="logical" >  T  T  T </v>
   <v type="logical" >  T  T  T </v>
   <v type="logical" >  T  T  T </v>
   <v type="logical" >  T  T  T </v>
   <v type="logical" >  T  T  T </v>
   <v type="logical" >  T  T  T </v>
   <v type="logical" >  T  T  T </v>
  </varray>
  <nose>
   <v>      -3.00000000       0.00000000       0.00010000       0.00010000 </v>
  </nose>
 </structure>
 <calculation>
  <scstep>
   <time name="dav">   12.66   12.76</time>
   <time name="total">   12.70   12.80</time>
   <energy>
    <i name="alphaZ">   1165.16924622 </i>
    <i name="ewald"> 408982.02425276 </i>
    <i name="hartreedc">-457596.56912939 </i>
    <i name="XCdc">    258.47222244 </i>
    <i name="pawpsdc">  45009.11181811 </i>
    <i name="pawaedc"> -43201.36138378 </i>
    <i name="eentropy">      0.00366448 </i>
    <i name="bandstr">   2377.75367826 </i>
    <i name="atom">  47255.03396832 </i>
    <i name="e_fr_energy">   4249.63833741 </i>
    <i name="e_wo_entrp">   4249.63467294 </i>
    <i name="e_0_energy">   4249.63711592 </i>
   </energy>
  </scstep>
  <scstep>
   <time name="dav">   14.96   15.08</time>
   <time name="total">   14.96   15.08</time>
   <energy>
    <i name="e_fr_energy">    -26.83271682 </i>
    <i name="e_wo_entrp">    -26.83152527 </i>
    <i name="e_0_energy">    -26.83231964 </i>
   </energy>
  </scstep>
  <scstep>
   <time name="dav">   14.06   14.18</time>
   <time name="total">   14.06   14.18</time>
   <energy>
    <i name="e_fr_energy">   -396.64879778 </i>
    <i name="e_wo_entrp">   -396.60007837 </i>
    <i name="e_0_energy">   -396.63255798 </i>
   </energy>
  </scstep>
  <scstep>
   <time name="dav">   16.03   16.17</time>
   <time name="total">   16.03   16.17</time>
   <energy>
    <i name="e_fr_energy">   -414.46927363 </i>
    <i name="e_wo_entrp">   -414.39282065 </i>
    <i name="e_0_energy">   -414.44378931 </i>
   </energy>
  </scstep>
  <scstep>
   <time name="dav">   15.04   15.16</time>
   <time name="total">   15.41   15.54</time>
   <energy>
    <i name="e_fr_energy">   -414.97563834 </i>
    <i name="e_wo_entrp">   -414.89868353 </i>
    <i name="e_0_energy">   -414.94998674 </i>
   </energy>
  </scstep>
  <scstep>
   <time name="diag">    2.04    2.05</time>
   <time name="diis">    5.66    5.71</time>
   <time name="orth">    0.53    0.53</time>
   <time name="total">    8.62    8.71</time>
   <energy>
    <i name="e_fr_energy">   -402.66850458 </i>
    <i name="e_wo_entrp">   -402.66805730 </i>
    <i name="e_0_energy">   -402.66835549 </i>
   </energy>
  </scstep>
  <scstep>
   <time name="diag">    2.03    2.05</time>
   <time name="diis">    5.58    5.62</time>
   <time name="orth">    0.53    0.54</time>
   <time name="total">    8.53    8.60</time>
   <energy>
    <i name="e_fr_energy">   -477.38116789 </i>
    <i name="e_wo_entrp">   -477.37745984 </i>
    <i name="e_0_energy">   -477.37993187 </i>
   </energy>
  </scstep>
  <scstep>
   <time name="diag">    2.05    2.07</time>
   <time name="diis">    5.61    5.66</time>
   <time name="orth">    0.53    0.54</time>
   <time name="total">    8.58    8.66</time>
   <energy>
    <i name="e_fr_energy">   -395.76297113 </i>
    <i name="e_wo_entrp">   -395.77656964 </i>
    <i name="e_0_energy">   -395.76750397 </i>
   </energy>
  </scstep>
  <scstep>
   <time name="diag">    2.04    2.06</time>
   <time name="diis">    5.57    5.62</time>
   <time name="orth">    0.53    0.54</time>
   <time name="total">    8.53    8.60</time>
   <energy>
    <i name="e_fr_energy">   -433.26675472 </i>
    <i name="e_wo_entrp">   -433.24903594 </i>
    <i name="e_0_energy">   -433.26084846 </i>
   </energy>
  </scstep>
  <scstep>
   <time name="diag">    2.03    2.05</time>
   <time name="diis">    5.56    5.62</time>
   <time name="orth">    0.54    0.54</time>
   <time name="total">    8.53    8.61</time>
   <energy>
    <i name="e_fr_energy">   -410.35299248 </i>
    <i name="e_wo_entrp">   -410.36135853 </i>
    <i name="e_0_energy">   -410.35578116 </i>
   </energy>
  </scstep>
  <scstep>
   <time name="diag">    2.04    2.06</time>
   <time name="diis">    5.60    5.65</time>
   <time name="orth">    0.53    0.54</time>
   <time name="total">    8.56    8.64</time>
   <energy>
    <i name="e_fr_energy">   -391.48110535 </i>
    <i name="e_wo_entrp">   -391.45246621 </i>
    <i name="e_0_energy">   -391.47155897 </i>
   </energy>
  </scstep>
  <scstep>
   <time name="diag">    2.05    2.06</time>
   <time name="diis">    5.59    5.64</time>
   <time name="orth">    0.53    0.54</time>
   <time name="total">    8.56    8.64</time>
   <energy>
    <i name="e_fr_energy">   -389.71863406 </i>
    <i name="e_wo_entrp">   -389.68094877 </i>
    <i name="e_0_energy">   -389.70607230 </i>
   </energy>
  </scstep>
  <scstep>
   <time name="diag">    2.04    2.06</time>
   <time name="diis">    5.58    5.63</time>
   <time name="orth">    0.53    0.54</time>
   <time name="total">    8.55    8.63</time>
   <energy>
    <i name="e_fr_energy">   -388.63772774 </i>
    <i name="e_wo_entrp">   -388.60163197 </i>
    <i name="e_0_energy">   -388.62569581 </i>
   </energy>
  </scstep>
  <scstep>
   <time name="diag">    2.04    2.06</time>
   <time name="diis">    5.62    5.66</time>
   <time name="orth">    0.53    0.54</time>
   <time name="total">    8.57    8.65</time>
   <energy>
    <i name="e_fr_energy">   -388.19547862 </i>
    <i name="e_wo_entrp">   -388.16208018 </i>
    <i name="e_0_energy">   -388.18434581 </i>
   </energy>
  </scstep>
  <scstep>
   <time name="diag">    2.04    2.06</time>
   <time name="diis">    5.60    5.65</time>
   <time name="orth">    0.53    0.54</time>
   <time name="total">    8.56    8.64</time>
   <energy>
    <i name="e_fr_energy">   -388.08791056 </i>
    <i name="e_wo_entrp">   -388.04575348 </i>
    <i name="e_0_energy">   -388.07385820 </i>
   </energy>
  </scstep>
  <scstep>
   <time name="diag">    2.04    2.06</time>
   <time name="diis">    5.62    5.67</time>
   <time name="orth">    0.54    0.54</time>
   <time name="total">    8.58    8.65</time>
   <energy>
    <i name="e_fr_energy">   -387.96934593 </i>
    <i name="e_wo_entrp">   -387.91565012 </i>
    <i name="e_0_energy">   -387.95144733 </i>
   </energy>
  </scstep>
  <scstep>
   <time name="diag">    2.04    2.06</time>
   <time name="diis">    5.61    5.66</time>
   <time name="orth">    0.54    0.54</time>
   <time name="total">    8.57    8.65</time>
   <energy>
    <i name="e_fr_energy">   -387.93151516 </i>
    <i name="e_wo_entrp">   -387.88509550 </i>
    <i name="e_0_energy">   -387.91604194 </i>
   </energy>
  </scstep>
  <scstep>
   <time name="diag">    2.04    2.06</time>
   <time name="diis">    5.61    5.67</time>
   <time name="orth">    0.53    0.54</time>
   <time name="total">    8.58    8.66</time>
   <energy>
    <i name="e_fr_energy">   -387.94176647 </i>
    <i name="e_wo_entrp">   -387.89638904 </i>
    <i name="e_0_energy">   -387.92664066 </i>
   </energy>
  </scstep>
  <scstep>
   <time name="diag">    2.04    2.06</time>
   <time name="diis">    5.63    5.67</time>
   <time name="orth">    0.53    0.54</time>
   <time name="total">    8.60    8.67</time>
   <energy>
    <i name="e_fr_energy">   -387.93089705 </i>
    <i name="e_wo_entrp">   -387.88508354 </i>
    <i name="e_0_energy">   -387.91562588 </i>
   </energy>
  </scstep>
  <scstep>
   <time name="diag">    2.05    2.07</time>
   <time name="diis">    5.60    5.66</time>
   <time name="orth">    0.54    0.54</time>
   <time name="total">    8.58    8.66</time>
   <energy>
    <i name="e_fr_energy">   -387.91545105 </i>
    <i name="e_wo_entrp">   -387.86893456 </i>
    <i name="e_0_energy">   -387.89994555 </i>
   </energy>
  </scstep>
  <scstep>
   <time name="diag">    2.05    2.07</time>
   <time name="diis">    5.64    5.70</time>
   <time name="orth">    0.54    0.54</time>
   <time name="total">    8.63    8.70</time>
   <energy>
    <i name="e_fr_energy">   -387.91121266 </i>
    <i name="e_wo_entrp">   -387.86402209 </i>
    <i name="e_0_energy">   -387.89548247 </i>
   </energy>
  </scstep>
  <scstep>
   <time name="diag">    2.05    2.08</time>
   <time name="diis">    5.67    5.72</time>
   <time name="orth">    0.54    0.55</time>
   <time name="total">    8.66    8.74</time>
   <energy>
    <i name="e_fr_energy">   -387.91037005 </i>
    <i name="e_wo_entrp">   -387.86321335 </i>
    <i name="e_0_energy">   -387.89465115 </i>
   </energy>
  </scstep>
  <scstep>
   <time name="diag">    2.06    2.08</time>
   <time name="diis">    5.63    5.69</time>
   <time name="orth">    0.55    0.55</time>
   <time name="total">    8.64    8.72</time>
   <energy>
    <i name="e_fr_energy">   -387.91075306 </i>
    <i name="e_wo_entrp">   -387.86362379 </i>
    <i name="e_0_energy">   -387.89504331 </i>
   </energy>
  </scstep>
  <scstep>
   <time name="diag">    2.07    2.09</time>
   <time name="diis">    5.63    5.68</time>
   <time name="orth">    0.55    0.56</time>
   <time name="total">    8.65    8.73</time>
   <energy>
    <i name="e_fr_energy">   -387.91037705 </i>
    <i name="e_wo_entrp">   -387.86321257 </i>
    <i name="e_0_energy">   -387.89465556 </i>
   </energy>
  </scstep>
  <scstep>
   <time name="diag">    2.08    2.10</time>
   <time name="diis">    5.63    5.68</time>
   <time name="orth">    0.56    0.56</time>
   <time name="total">    8.67    8.76</time>
   <energy>
    <i name="e_fr_energy">   -387.91032876 </i>
    <i name="e_wo_entrp">   -387.86340905 </i>
    <i name="e_0_energy">   -387.89468885 </i>
   </energy>
  </scstep>
  <scstep>
   <time name="diag">    2.08    2.10</time>
   <time name="diis">    5.62    5.67</time>
   <time name="orth">    0.56    0.57</time>
   <time name="total">    8.67    8.76</time>
   <energy>
    <i name="e_fr_energy">   -387.91034195 </i>
    <i name="e_wo_entrp">   -387.86343136 </i>
    <i name="e_0_energy">   -387.89470509 </i>
   </energy>
  </scstep>
  <scstep>
   <time name="diag">    2.11    2.12</time>
   <time name="diis">    4.37    4.40</time>
   <time name="orth">    0.56    0.57</time>
   <time name="total">    7.45    7.51</time>
   <energy>
    <i name="e_fr_energy">   -387.91036907 </i>
    <i name="e_wo_entrp">   -387.86358920 </i>
    <i name="e_0_energy">   -387.89477578 </i>
   </energy>
  </scstep>
  <scstep>
   <time name="diag">    2.11    2.13</time>
   <time name="diis">    3.98    4.02</time>
   <time name="orth">    0.57    0.58</time>
   <time name="total">    7.07    7.14</time>
   <energy>
    <i name="e_fr_energy">   -387.91045424 </i>
    <i name="e_wo_entrp">   -387.86377093 </i>
    <i name="e_0_energy">   -387.89489314 </i>
   </energy>
  </scstep>
  <scstep>
   <time name="diag">    2.12    2.15</time>
   <time name="diis">    3.67    3.70</time>
   <time name="orth">    0.58    0.58</time>
   <time name="total">    6.79    6.85</time>
   <energy>
    <i name="e_fr_energy">   -387.91054769 </i>
    <i name="e_wo_entrp">   -387.86394948 </i>
    <i name="e_0_energy">   -387.89501495 </i>
   </energy>
  </scstep>
  <scstep>
   <time name="diag">    2.14    2.15</time>
   <time name="diis">    3.41    3.45</time>
   <time name="orth">    0.58    0.59</time>
   <time name="total">    6.55    6.62</time>
   <energy>
    <i name="e_fr_energy">   -387.91060987 </i>
    <i name="e_wo_entrp">   -387.86401211 </i>
    <i name="e_0_energy">   -387.89507728 </i>
   </energy>
  </scstep>
  <scstep>
   <time name="diag">    2.16    2.17</time>
   <time name="diis">    3.37    3.40</time>
   <time name="orth">    0.59    0.60</time>
   <time name="total">    6.53    6.59</time>
   <energy>
    <i name="e_fr_energy">   -387.91067271 </i>
    <i name="e_wo_entrp">   -387.86400266 </i>
    <i name="e_0_energy">   -387.89511603 </i>
   </energy>
  </scstep>
  <scstep>
   <time name="diag">    2.16    2.19</time>
   <time name="diis">    3.38    3.41</time>
   <time name="orth">    0.59    0.60</time>
   <time name="total">    6.56    6.63</time>
   <energy>
    <i name="e_fr_energy">   -387.91075342 </i>
    <i name="e_wo_entrp">   -387.86405888 </i>
    <i name="e_0_energy">   -387.89518857 </i>
   </energy>
  </scstep>
  <scstep>
   <time name="diag">    2.18    2.20</time>
   <time name="diis">    3.55    3.58</time>
   <time name="orth">    0.60    0.60</time>
   <time name="total">    6.76    6.84</time>
   <energy>
    <i name="e_fr_energy">   -387.91092103 </i>
    <i name="e_wo_entrp">   -387.86423552 </i>
    <i name="e_0_energy">   -387.89535919 </i>
   </energy>
  </scstep>
  <scstep>
   <time name="diag">    2.19    2.21</time>
   <time name="diis">    3.35    3.38</time>
   <time name="orth">    0.61    0.62</time>
   <time name="total">    6.58    6.65</time>
   <energy>
    <i name="e_fr_energy">   -387.91099870 </i>
    <i name="e_wo_entrp">   -387.86431749 </i>
    <i name="e_0_energy">   -387.89543830 </i>
   </energy>
  </scstep>
  <scstep>
   <time name="diag">    2.20    2.23</time>
   <time name="diis">    2.73    2.75</time>
   <time name="orth">    0.62    0.63</time>
   <time name="total">    5.99    6.05</time>
   <energy>
    <i name="e_fr_energy">   -387.91102435 </i>
    <i name="e_wo_entrp">   -387.86434379 </i>
    <i name="e_0_energy">   -387.89546416 </i>
   </energy>
  </scstep>
  <scstep>
   <time name="diag">    2.21    2.24</time>
   <time name="diis">    3.17    3.20</time>
   <time name="orth">    0.63    0.63</time>
   <time name="total">    6.46    6.53</time>
   <energy>
    <i name="e_fr_energy">   -387.91110143 </i>
    <i name="e_wo_entrp">   -387.86441968 </i>
    <i name="e_0_energy">   -387.89554085 </i>
   </energy>
  </scstep>
  <scstep>
   <time name="diag">    2.23    2.25</time>
   <time name="diis">    3.17    3.20</time>
   <time name="orth">    0.63    0.64</time>
   <time name="total">    6.48    6.54</time>
   <energy>
    <i name="e_fr_energy">   -387.91116153 </i>
    <i name="e_wo_entrp">   -387.86448412 </i>
    <i name="e_0_energy">   -387.89560240 </i>
   </energy>
  </scstep>
  <scstep>
   <time name="diag">    2.25    2.28</time>
   <time name="diis">    2.94    2.97</time>
   <time name="orth">    0.64    0.64</time>
   <time name="total">    6.28    6.35</time>
   <energy>
    <i name="e_fr_energy">   -387.91120379 </i>
    <i name="e_wo_entrp">   -387.86452458 </i>
    <i name="e_0_energy">   -387.89564405 </i>
   </energy>
  </scstep>
  <scstep>
   <time name="diag">    2.25    2.27</time>
   <time name="diis">    2.69    2.72</time>
   <time name="orth">    0.65    0.65</time>
   <time name="total">    6.04    6.10</time>
   <energy>
    <i name="e_fr_energy">   -387.91122472 </i>
    <i name="e_wo_entrp">   -387.86454882 </i>
    <i name="e_0_energy">   -387.89566609 </i>
   </energy>
  </scstep>
  <scstep>
   <time name="diag">    2.26    2.28</time>
   <time name="diis">    2.86    2.89</time>
   <time name="orth">    0.64    0.65</time>
   <time name="total">    6.22    6.29</time>
   <energy>
    <i name="e_fr_energy">   -387.91125324 </i>
    <i name="e_wo_entrp">   -387.86457711 </i>
    <i name="e_0_energy">   -387.89569453 </i>
   </energy>
  </scstep>
  <scstep>
   <time name="diag">    2.27    2.29</time>
   <time name="diis">    2.56    2.59</time>
   <time name="orth">    0.65    0.65</time>
   <time name="total">    5.94    6.00</time>
   <energy>
    <i name="e_fr_energy">   -387.91126814 </i>
    <i name="e_wo_entrp">   -387.86459290 </i>
    <i name="e_0_energy">   -387.89570973 </i>
   </energy>
  </scstep>
  <scstep>
   <time name="diag">    2.29    2.31</time>
   <time name="diis">    2.66    2.69</time>
   <time name="orth">    0.66    0.67</time>
   <time name="total">    6.06    6.13</time>
   <energy>
    <i name="e_fr_energy">   -387.91128128 </i>
    <i name="e_wo_entrp">   -387.86460702 </i>
    <i name="e_0_energy">   -387.89572319 </i>
   </energy>
  </scstep>
  <scstep>
   <time name="diag">    2.29    2.31</time>
   <time name="diis">    2.42    2.45</time>
   <time name="orth">    0.66    0.66</time>
   <time name="total">    5.40    5.46</time>
   <energy>
    <i name="alphaZ">   1165.16924622 </i>
    <i name="ewald"> 408982.02425276 </i>
    <i name="hartreedc">-456996.71720384 </i>
    <i name="XCdc">    237.00733785 </i>
    <i name="pawpsdc">  57252.75559487 </i>
    <i name="pawaedc"> -55618.68753141 </i>
    <i name="eentropy">     -0.04667464 </i>
    <i name="bandstr">  -2664.45027942 </i>
    <i name="atom">  47255.03396832 </i>
    <i name="e_fr_energy">   -387.91128929 </i>
    <i name="e_wo_entrp">   -387.86461465 </i>
    <i name="e_0_energy">   -387.89573108 </i>
   </energy>
  </scstep>
  <structure>
   <crystal>
    <varray name="basis" >
     <v>      11.21440000       0.00000000       0.00000000 </v>
     <v>       5.60720000       9.71195529       0.00000000 </v>
     <v>       0.00000000       0.00000000      31.44560000 </v>
    </varray>
    <i name="volume">   3424.85826052 </i>
    <varray name="rec_basis" >
     <v>       0.08917107      -0.05148294       0.00000000 </v>
     <v>       0.00000000       0.10296588       0.00000000 </v>
     <v>       0.00000000       0.00000000       0.03180095 </v>
    </varray>
   </crystal>
   <varray name="positions" >
    <v>       0.08333000       0.33333000       0.39081000 </v>
    <v>       0.08333000       0.08333000       0.39081000 </v>
    <v>       0.33333000       0.33333000       0.39081000 </v>
    <v>       0.33333000       0.08333000       0.39081000 </v>
    <v>       0.41667000       0.16667000       0.46360000 </v>
    <v>       0.41667000       0.41667000       0.46360000 </v>
    <v>       0.16667000       0.16667000       0.46360000 </v>
    <v>       0.16667000       0.41667000       0.46360000 </v>
    <v>       0.24976547       0.00026160       0.53562177 </v>
    <v>       0.25124544       0.25014567       0.53540273 </v>
    <v>       0.50004942       0.00185336       0.53549061 </v>
    <v>       0.50080941       0.25249805       0.53871925 </v>
    <v>       0.08328945       0.33279480       0.60863330 </v>
    <v>       0.08153259       0.08424770       0.60893964 </v>
    <v>       0.32766440       0.33337582       0.60941751 </v>
    <v>       0.33322154       0.08361023       0.60879355 </v>
    <v>       0.08333000       0.83333000       0.39081000 </v>
    <v>       0.08333000       0.58333000       0.39081000 </v>
    <v>       0.33333000       0.83333000       0.39081000 </v>
    <v>       0.33333000       0.58333000       0.39081000 </v>
    <v>       0.41667000       0.66667000       0.46360000 </v>
    <v>       0.41667000       0.91667000       0.46360000 </v>
    <v>       0.16667000       0.66667000       0.46360000 </v>
    <v>       0.16667000       0.91667000       0.46360000 </v>
    <v>       0.24921678       0.50027687       0.53579264 </v>
    <v>       0.25045697       0.74979835       0.53509843 </v>
    <v>       0.50026052       0.49855567       0.53856958 </v>
    <v>       0.50002688       0.74949693       0.53536502 </v>
    <v>       0.08235011       0.83507284       0.60874498 </v>
    <v>       0.08159291       0.58442681       0.60902610 </v>
    <v>       0.33244843       0.83556381       0.60891199 </v>
    <v>       0.32509522       0.59173087       0.60894782 </v>
    <v>       0.58333000       0.33333000       0.39081000 </v>
    <v>       0.58333000       0.08333000       0.39081000 </v>
    <v>       0.83333000       0.33333000       0.39081000 </v>
    <v>       0.83333000       0.08333000       0.39081000 </v>
    <v>       0.91667000       0.16667000       0.46360000 </v>
    <v>       0.91667000       0.41667000       0.46360000 </v>
    <v>       0.66667000       0.16667000       0.46360000 </v>
    <v>       0.66667000       0.41667000       0.46360000 </v>
    <v>       0.74954954       0.00059417       0.53552376 </v>
    <v>       0.74502726       0.25318133       0.53915178 </v>
    <v>       0.99736328       0.00224308       0.53553862 </v>
    <v>       0.99758667       0.25023974       0.53545826 </v>
    <v>       0.57922012       0.33754482       0.61972789 </v>
    <v>       0.58354672       0.08132727       0.60941447 </v>
    <v>       0.83584213       0.33419446       0.60957076 </v>
    <v>       0.83399435       0.08215948       0.60955203 </v>
    <v>       0.58333000       0.83333000       0.39081000 </v>
    <v>       0.58333000       0.58333000       0.39081000 </v>
    <v>       0.83333000       0.83333000       0.39081000 </v>
    <v>       0.83333000       0.58333000       0.39081000 </v>
    <v>       0.91667000       0.66667000       0.46360000 </v>
    <v>       0.91667000       0.91667000       0.46360000 </v>
    <v>       0.66667000       0.66667000       0.46360000 </v>
    <v>       0.66667000       0.91667000       0.46360000 </v>
    <v>       0.75017247       0.50020637       0.53572578 </v>
    <v>       0.74952026       0.75006509       0.53573259 </v>
    <v>       0.00021312       0.49964261       0.53566851 </v>
    <v>       0.00062992       0.74987879       0.53571464 </v>
    <v>       0.58246957       0.83419079       0.60859213 </v>
    <v>       0.58328173       0.58925364       0.60920573 </v>
    <v>       0.83231725       0.83507394       0.60880602 </v>
    <v>       0.83315285       0.58373097       0.60882963 </v>
    <v>       0.50675521       0.41553435       0.71074132 </v>
    <v>       0.54023093       0.37955911       0.67603318 </v>
    <v>       0.65499837       0.36525693       0.68694349 </v>
   </varray>
  </structure>
  <varray name="forces" >
   <v>      -0.00459358      -0.00662105      -0.04990782 </v>
   <v>       0.08086583      -0.05342321      -0.14820326 </v>
   <v>      -0.00384725      -0.02927809      -0.05950202 </v>
   <v>      -0.06454019      -0.03848159      -0.11978505 </v>
   <v>       0.17006160       0.09448652       0.09668439 </v>
   <v>       0.12762899      -0.05314328       0.40077056 </v>
   <v>      -0.02327317       0.00311904       0.06741024 </v>
   <v>       0.03474741       0.02819300      -0.00373090 </v>
   <v>      -0.01887018       0.03953594       0.00396842 </v>
   <v>      -0.10850796      -0.01625299      -0.04012064 </v>
   <v>      -0.04425288      -0.06754665      -0.01578347 </v>
   <v>       0.05073955       0.02814868      -0.17181140 </v>
   <v>       0.00467444       0.01284212       0.03156885 </v>
   <v>       0.02716917       0.00232742      -0.00766575 </v>
   <v>       0.07073405       0.06330662      -0.02413267 </v>
   <v>      -0.02030039       0.00169074       0.01209170 </v>
   <v>       0.00640708       0.01206989      -0.05871099 </v>
   <v>       0.00743105      -0.00735220      -0.04660257 </v>
   <v>      -0.00151487       0.07691699      -0.12981158 </v>
   <v>       0.01655023       0.01375955      -0.07020062 </v>
   <v>       0.01182919      -0.15773761       0.05977636 </v>
   <v>      -0.01024549       0.01204085       0.02993734 </v>
   <v>      -0.00530358      -0.04581500      -0.03494273 </v>
   <v>      -0.01975824       0.03457183       0.03710820 </v>
   <v>       0.09682881      -0.02739108       0.03401045 </v>
   <v>      -0.00910152       0.05791933       0.06403585 </v>
   <v>       0.02536708      -0.06265328      -0.16655204 </v>
   <v>      -0.03743793       0.06203119      -0.05341650 </v>
   <v>      -0.01370246       0.03420640       0.00990185 </v>
   <v>      -0.05818912       0.03362326       0.00436627 </v>
   <v>      -0.03157396      -0.01229070      -0.02009146 </v>
   <v>       0.02055089      -0.08437478      -0.02927858 </v>
   <v>       0.00929406      -0.00487607      -0.01121991 </v>
   <v>      -0.04347699      -0.00051967      -0.07009963 </v>
   <v>       0.00588336      -0.02408056      -0.06709455 </v>
   <v>       0.02746447       0.00212923      -0.07103921 </v>
   <v>      -0.15428821       0.08103824       0.12007166 </v>
   <v>      -0.03832135       0.01318705       0.00354356 </v>
   <v>       0.03291969       0.17145225       0.40634408 </v>
   <v>      -0.12877780      -0.09336914       0.43452737 </v>
   <v>       0.02078898       0.01121619       0.06432748 </v>
   <v>      -0.15855875       0.08016234      -0.11272831 </v>
   <v>       0.06095187      -0.05635076      -0.01734008 </v>
   <v>       0.13991503      -0.01890518      -0.02111663 </v>
   <v>      -0.41950599      -0.24864857      -1.25548036 </v>
   <v>      -0.01270590      -0.04838464       0.00607599 </v>
   <v>       0.04776582       0.04803409       0.04423823 </v>
   <v>       0.01932711      -0.10951235      -0.05706284 </v>
   <v>       0.00085284       0.00227061      -0.05128214 </v>
   <v>      -0.01845278       0.02244719      -0.06403958 </v>
   <v>      -0.00461013       0.00682809      -0.04464524 </v>
   <v>      -0.00285624      -0.00024675      -0.04942173 </v>
   <v>       0.00267990       0.00331295       0.09091899 </v>
   <v>      -0.01431997       0.01592948       0.00972085 </v>
   <v>       0.00243666      -0.03999851      -0.01147986 </v>
   <v>       0.02559348       0.00619634       0.00402012 </v>
   <v>      -0.10426216      -0.03041825       0.02566208 </v>
   <v>       0.07987758       0.04391924      -0.00888593 </v>
   <v>      -0.01075181       0.00605109       0.00199948 </v>
   <v>      -0.08789724       0.06707391       0.00384905 </v>
   <v>       0.01202526       0.07245351       0.05180857 </v>
   <v>       0.03786332       0.01930333      -0.04141798 </v>
   <v>      -0.00983864      -0.05241043      -0.00211428 </v>
   <v>       0.06069016       0.04142509       0.01172273 </v>
   <v>      -3.77715551       1.87110570       4.31572813 </v>
   <v>       3.51161533      -1.03090497      -1.10718229 </v>
   <v>       0.61126196      -0.77533796      -2.13228827 </v>
  </varray>
  <varray name="stress" >
   <v>     -21.28234464      -0.68492578      -1.67337436 </v>
   <v>      -0.68492578     -21.47445434       1.71893116 </v>
   <v>      -1.67337436       1.71893116     -15.01388271 </v>
  </varray>
  <energy>
   <i name="e_fr_energy">   -387.91128929 </i>
   <i name="e_wo_entrp">   -387.89573108 </i>
   <i name="e_0_energy">     -0.04667464 </i>
  </energy>
  <time name="totalsc">  367.76  371.21</time>
 </calculation>
 <calculation>
  <scstep>
   <time name="dav">   13.64   13.77</time>
   <time name="total">   14.10   14.25</time>
   <energy>
    <i name="alphaZ">   1165.16924622 </i>
    <i name="ewald"> 408815.73320658 </i>
    <i name="hartreedc">-456848.32424051 </i>
    <i name="XCdc">    235.97548264 </i>
    <i name="pawpsdc">  57252.76444165 </i>
    <i name="pawaedc"> -55618.69644010 </i>
    <i name="eentropy">     -0.04175921 </i>
    <i name="bandstr">  -2643.81886470 </i>
    <i name="atom">  47255.03396832 </i>
    <i name="e_fr_energy">   -386.20495911 </i>
    <i name="e_wo_entrp">   -386.16319990 </i>
    <i name="e_0_energy">   -386.19103937 </i>
   </energy>
  </scstep>
  <scstep>
   <time name="diag">    2.30    2.32</time>
   <time name="diis">    6.00    6.06</time>
   <time name="orth">    0.65    0.66</time>
   <time name="total">    9.41    9.50</time>
   <energy>
    <i name="e_fr_energy">   -387.32015598 </i>
    <i name="e_wo_entrp">   -387.27473964 </i>
    <i name="e_0_energy">   -387.30501720 </i>
   </energy>
  </scstep>
  <scstep>
   <time name="diag">    2.29    2.31</time>
   <time name="diis">    6.05    6.11</time>
   <time name="orth">    0.65    0.66</time>
   <time name="total">    9.45    9.54</time>
   <energy>
    <i name="e_fr_energy">   -389.68267450 </i>
    <i name="e_wo_entrp">   -389.64117807 </i>
    <i name="e_0_energy">   -389.66884236 </i>
   </energy>
  </scstep>
  <scstep>
   <time name="diag">    2.28    2.31</time>
   <time name="diis">    5.98    6.04</time>
   <time name="orth">    0.65    0.65</time>
   <time name="total">    9.36    9.47</time>
   <energy>
    <i name="e_fr_energy">   -387.34078960 </i>
    <i name="e_wo_entrp">   -387.27426872 </i>
    <i name="e_0_energy">   -387.31861597 </i>
   </energy>
  </scstep>
  <scstep>
   <time name="diag">    2.28    2.31</time>
   <time name="diis">    5.99    6.05</time>
   <time name="orth">    0.65    0.66</time>
   <time name="total">    9.38    9.48</time>
   <energy>
    <i name="e_fr_energy">   -387.06327204 </i>
    <i name="e_wo_entrp">   -387.02032194 </i>
    <i name="e_0_energy">   -387.04895534 </i>
   </energy>
  </scstep>
  <scstep>
   <time name="diag">    2.29    2.32</time>
   <time name="diis">    5.95    6.01</time>
   <time name="orth">    0.65    0.65</time>
   <time name="total">    9.34    9.44</time>
   <energy>
    <i name="e_fr_energy">   -387.06649616 </i>
    <i name="e_wo_entrp">   -387.02372538 </i>
    <i name="e_0_energy">   -387.05223923 </i>
   </energy>
  </scstep>
  <scstep>
   <time name="diag">    2.29    2.31</time>
   <time name="diis">    5.98    6.05</time>
   <time name="orth">    0.65    0.66</time>
   <time name="total">    9.38    9.47</time>
   <energy>
    <i name="e_fr_energy">   -387.01360435 </i>
    <i name="e_wo_entrp">   -386.96353391 </i>
    <i name="e_0_energy">   -386.99691420 </i>
   </energy>
  </scstep>
  <scstep>
   <time name="diag">    2.28    2.30</time>
   <time name="diis">    5.95    6.02</time>
   <time name="orth">    0.65    0.66</time>
   <time name="total">    9.34    9.44</time>
   <energy>
    <i name="e_fr_energy">   -387.00813075 </i>
    <i name="e_wo_entrp">   -386.96830713 </i>
    <i name="e_0_energy">   -386.99485621 </i>
   </energy>
  </scstep>
  <scstep>
   <time name="diag">    2.28    2.31</time>
   <time name="diis">    6.00    6.06</time>
   <time name="orth">    0.65    0.66</time>
   <time name="total">    9.38    9.49</time>
   <energy>
    <i name="e_fr_energy">   -386.97950403 </i>
    <i name="e_wo_entrp">   -386.93149372 </i>
    <i name="e_0_energy">   -386.96350059 </i>
   </energy>
  </scstep>
  <scstep>
   <time name="diag">    2.28    2.30</time>
   <time name="diis">    5.99    6.05</time>
   <time name="orth">    0.65    0.66</time>
   <time name="total">    9.36    9.46</time>
   <energy>
    <i name="e_fr_energy">   -386.97589436 </i>
    <i name="e_wo_entrp">   -386.92910290 </i>
    <i name="e_0_energy">   -386.96029720 </i>
   </energy>
  </scstep>
  <scstep>
   <time name="diag">    2.27    2.30</time>
   <time name="diis">    6.00    6.06</time>
   <time name="orth">    0.64    0.66</time>
   <time name="total">    9.37    9.48</time>
   <energy>
    <i name="e_fr_energy">   -386.97706606 </i>
    <i name="e_wo_entrp">   -386.92951833 </i>
    <i name="e_0_energy">   -386.96121682 </i>
   </energy>
  </scstep>
  <scstep>
   <time name="diag">    2.29    2.31</time>
   <time name="diis">    5.99    6.05</time>
   <time name="orth">    0.65    0.66</time>
   <time name="total">    9.38    9.48</time>
   <energy>
    <i name="e_fr_energy">   -386.97734195 </i>
    <i name="e_wo_entrp">   -386.93013143 </i>
    <i name="e_0_energy">   -386.96160511 </i>
   </energy>
  </scstep>
  <scstep>
   <time name="diag">    2.27    2.29</time>
   <time name="diis">    5.98    6.05</time>
   <time name="orth">    0.65    0.66</time>
   <time name="total">    9.36    9.46</time>
   <energy>
    <i name="e_fr_energy">   -386.97774594 </i>
    <i name="e_wo_entrp">   -386.93061424 </i>
    <i name="e_0_energy">   -386.96203538 </i>
   </energy>
  </scstep>
  <scstep>
   <time name="diag">    2.27    2.30</time>
   <time name="diis">    5.98    6.04</time>
   <time name="orth">    0.65    0.65</time>
   <time name="total">    9.36    9.46</time>
   <energy>
    <i name="e_fr_energy">   -386.97908851 </i>
    <i name="e_wo_entrp">   -386.93186331 </i>
    <i name="e_0_energy">   -386.96334678 </i>
   </energy>
  </scstep>
  <scstep>
   <time name="diag">    2.28    2.30</time>
   <time name="diis">    5.96    6.03</time>
   <time name="orth">    0.64    0.65</time>
   <time name="total">    9.34    9.43</time>
   <energy>
    <i name="e_fr_energy">   -386.97980805 </i>
    <i name="e_wo_entrp">   -386.93274635 </i>
    <i name="e_0_energy">   -386.96412082 </i>
   </energy>
  </scstep>
  <scstep>
   <time name="diag">    2.26    2.28</time>
   <time name="diis">    5.50    5.56</time>
   <time name="orth">    0.64    0.65</time>
   <time name="total">    8.85    8.94</time>
   <energy>
    <i name="e_fr_energy">   -386.98033696 </i>
    <i name="e_wo_entrp">   -386.93316684 </i>
    <i name="e_0_energy">   -386.96461359 </i>
   </energy>
  </scstep>
  <scstep>
   <time name="diag">    2.24    2.26</time>
   <time name="diis">    5.57    5.63</time>
   <time name="orth">    0.63    0.63</time>
   <time name="total">    8.89    8.98</time>
   <energy>
    <i name="e_fr_energy">   -386.98149229 </i>
    <i name="e_wo_entrp">   -386.93433494 </i>
    <i name="e_0_energy">   -386.96577317 </i>
   </energy>
  </scstep>
  <scstep>
   <time name="diag">    2.24    2.27</time>
   <time name="diis">    5.21    5.26</time>
   <time name="orth">    0.62    0.63</time>
   <time name="total">    8.51    8.60</time>
   <energy>
    <i name="e_fr_energy">   -386.98215643 </i>
    <i name="e_wo_entrp">   -386.93503955 </i>
    <i name="e_0_energy">   -386.96645080 </i>
   </energy>
  </scstep>
  <scstep>
   <time name="diag">    2.22    2.25</time>
   <time name="diis">    4.39    4.44</time>
   <time name="orth">    0.62    0.63</time>
   <time name="total">    7.68    7.76</time>
   <energy>
    <i name="e_fr_energy">   -386.98247991 </i>
    <i name="e_wo_entrp">   -386.93534505 </i>
    <i name="e_0_energy">   -386.96676829 </i>
   </energy>
  </scstep>
  <scstep>
   <time name="diag">    2.21    2.23</time>
   <time name="diis">    4.36    4.40</time>
   <time name="orth">    0.62    0.62</time>
   <time name="total">    7.62    7.70</time>
   <energy>
    <i name="e_fr_energy">   -386.98281060 </i>
    <i name="e_wo_entrp">   -386.93565380 </i>
    <i name="e_0_energy">   -386.96709167 </i>
   </energy>
  </scstep>
  <scstep>
   <time name="diag">    2.21    2.23</time>
   <time name="diis">    4.06    4.10</time>
   <time name="orth">    0.62    0.63</time>
   <time name="total">    7.32    7.40</time>
   <energy>
    <i name="e_fr_energy">   -386.98303797 </i>
    <i name="e_wo_entrp">   -386.93585342 </i>
    <i name="e_0_energy">   -386.96730978 </i>
   </energy>
  </scstep>
  <scstep>
   <time name="diag">    2.21    2.23</time>
   <time name="diis">    3.64    3.68</time>
   <time name="orth">    0.62    0.63</time>
   <time name="total">    6.91    6.98</time>
   <energy>
    <i name="e_fr_energy">   -386.98316029 </i>
    <i name="e_wo_entrp">   -386.93596096 </i>
    <i name="e_0_energy">   -386.96742718 </i>
   </energy>
  </scstep>
  <scstep>
   <time name="diag">    2.22    2.24</time>
   <time name="diis">    3.61    3.65</time>
   <time name="orth">    0.62    0.62</time>
   <time name="total">    6.88    6.95</time>
   <energy>
    <i name="e_fr_energy">   -386.98328177 </i>
    <i name="e_wo_entrp">   -386.93610053 </i>
    <i name="e_0_energy">   -386.96755469 </i>
   </energy>
  </scstep>
  <scstep>
   <time name="diag">    2.21    2.23</time>
   <time name="diis">    3.54    3.58</time>
   <time name="orth">    0.62    0.62</time>
   <time name="total">    6.80    6.87</time>
   <energy>
    <i name="e_fr_energy">   -386.98337737 </i>
    <i name="e_wo_entrp">   -386.93618709 </i>
    <i name="e_0_energy">   -386.96764727 </i>
   </energy>
  </scstep>
  <scstep>
   <time name="diag">    2.21    2.23</time>
   <time name="diis">    3.11    3.14</time>
   <time name="orth">    0.62    0.63</time>
   <time name="total">    6.38    6.44</time>
   <energy>
    <i name="e_fr_energy">   -386.98342592 </i>
    <i name="e_wo_entrp">   -386.93622879 </i>
    <i name="e_0_energy">   -386.96769355 </i>
   </energy>
  </scstep>
  <scstep>
   <time name="diag">    2.21    2.23</time>
   <time name="diis">    3.17    3.21</time>
   <time name="orth">    0.62    0.62</time>
   <time name="total">    6.45    6.51</time>
   <energy>
    <i name="e_fr_energy">   -386.98347696 </i>
    <i name="e_wo_entrp">   -386.93628179 </i>
    <i name="e_0_energy">   -386.96774524 </i>
   </energy>
  </scstep>
  <scstep>
   <time name="diag">    2.22    2.24</time>
   <time name="diis">    2.73    2.75</time>
   <time name="orth">    0.62    0.62</time>
   <time name="total">    6.01    6.07</time>
   <energy>
    <i name="e_fr_energy">   -386.98349549 </i>
    <i name="e_wo_entrp">   -386.93630027 </i>
    <i name="e_0_energy">   -386.96776375 </i>
   </energy>
  </scstep>
  <scstep>
   <time name="diag">    2.22    2.23</time>
   <time name="diis">    2.95    2.98</time>
   <time name="orth">    0.62    0.62</time>
   <time name="total">    6.22    6.28</time>
   <energy>
    <i name="e_fr_energy">   -386.98352583 </i>
    <i name="e_wo_entrp">   -386.93633140 </i>
    <i name="e_0_energy">   -386.96779435 </i>
   </energy>
  </scstep>
  <scstep>
   <time name="diag">    2.21    2.23</time>
   <time name="diis">    3.08    3.11</time>
   <time name="orth">    0.61    0.62</time>
   <time name="total">    6.35    6.42</time>
   <energy>
    <i name="e_fr_energy">   -386.98355715 </i>
    <i name="e_wo_entrp">   -386.93636615 </i>
    <i name="e_0_energy">   -386.96782682 </i>
   </energy>
  </scstep>
  <scstep>
   <time name="diag">    2.21    2.23</time>
   <time name="diis">    2.47    2.50</time>
   <time name="orth">    0.62    0.63</time>
   <time name="total">    5.73    5.79</time>
   <energy>
    <i name="e_fr_energy">   -386.98356718 </i>
    <i name="e_wo_entrp">   -386.93637698 </i>
    <i name="e_0_energy">   -386.96783711 </i>
   </energy>
  </scstep>
  <scstep>
   <time name="diag">    2.22    2.24</time>
   <time name="diis">    2.54    2.57</time>
   <time name="orth">    0.62    0.62</time>
   <time name="total">    5.82    5.88</time>
   <energy>
    <i name="e_fr_energy">   -386.98357873 </i>
    <i name="e_wo_entrp">   -386.93638643 </i>
    <i name="e_0_energy">   -386.96784796 </i>
   </energy>
  </scstep>
  <scstep>
   <time name="diag">    2.21    2.23</time>
   <time name="diis">    2.39    2.42</time>
   <time name="orth">    0.62    0.63</time>
   <time name="total">    5.25    5.30</time>
   <energy>
    <i name="alphaZ">   1165.16924622 </i>
    <i name="ewald"> 408815.73320658 </i>
    <i name="hartreedc">-456699.28990847 </i>
    <i name="XCdc">    235.70616055 </i>
    <i name="pawpsdc">  56984.64411378 </i>
    <i name="pawaedc"> -55350.45019622 </i>
    <i name="eentropy">     -0.04719377 </i>
    <i name="bandstr">  -2793.48298131 </i>
    <i name="atom">  47255.03396832 </i>
    <i name="e_fr_energy">   -386.98358431 </i>
    <i name="e_wo_entrp">   -386.93639054 </i>
    <i name="e_0_energy">   -386.96785305 </i>
   </energy>
  </scstep>
  <structure>
   <crystal>
    <varray name="basis" >
     <v>      11.21440000       0.00000000       0.00000000 </v>
     <v>       5.60720000       9.71195529       0.00000000 </v>
     <v>       0.00000000       0.00000000      31.44560000 </v>
    </varray>
    <i name="volume">   3424.85826052 </i>
    <varray name="rec_basis" >
     <v>       0.08917107      -0.05148294       0.00000000 </v>
     <v>       0.00000000       0.10296588       0.00000000 </v>
     <v>       0.00000000       0.00000000       0.03180095 </v>
    </varray>
   </crystal>
   <varray name="positions" >
    <v>       0.08333000       0.33333000       0.39081000 </v>
    <v>       0.08333000       0.08333000       0.39081000 </v>
    <v>       0.33333000       0.33333000       0.39081000 </v>
    <v>       0.33333000       0.08333000       0.39081000 </v>
    <v>       0.41667000       0.16667000       0.46360000 </v>
    <v>       0.41667000       0.41667000       0.46360000 </v>
    <v>       0.16667000       0.16667000       0.46360000 </v>
    <v>       0.16667000       0.41667000       0.46360000 </v>
    <v>       0.24958610       0.00045799       0.53562786 </v>
    <v>       0.25081902       0.25006494       0.53534118 </v>
    <v>       0.50002682       0.00151783       0.53546639 </v>
    <v>       0.50095777       0.25263787       0.53845566 </v>
    <v>       0.08327767       0.33285859       0.60868173 </v>
    <v>       0.08164369       0.08425927       0.60892787 </v>
    <v>       0.32781146       0.33369028       0.60938049 </v>
    <v>       0.33313001       0.08361862       0.60881210 </v>
    <v>       0.08333000       0.83333000       0.39081000 </v>
    <v>       0.08333000       0.58333000       0.39081000 </v>
    <v>       0.33333000       0.83333000       0.39081000 </v>
    <v>       0.33333000       0.58333000       0.39081000 </v>
    <v>       0.41667000       0.66667000       0.46360000 </v>
    <v>       0.41667000       0.91667000       0.46360000 </v>
    <v>       0.16667000       0.66667000       0.46360000 </v>
    <v>       0.16667000       0.91667000       0.46360000 </v>
    <v>       0.24970135       0.50014080       0.53584482 </v>
    <v>       0.25027396       0.75008606       0.53519668 </v>
    <v>       0.50052525       0.49824445       0.53831406 </v>
    <v>       0.49971176       0.74980506       0.53528307 </v>
    <v>       0.08220621       0.83524276       0.60876017 </v>
    <v>       0.08125908       0.58459383       0.60903280 </v>
    <v>       0.33234313       0.83550276       0.60888116 </v>
    <v>       0.32539319       0.59131175       0.60890290 </v>
    <v>       0.58333000       0.33333000       0.39081000 </v>
    <v>       0.58333000       0.08333000       0.39081000 </v>
    <v>       0.83333000       0.33333000       0.39081000 </v>
    <v>       0.83333000       0.08333000       0.39081000 </v>
    <v>       0.91667000       0.16667000       0.46360000 </v>
    <v>       0.91667000       0.41667000       0.46360000 </v>
    <v>       0.66667000       0.16667000       0.46360000 </v>
    <v>       0.66667000       0.41667000       0.46360000 </v>
    <v>       0.74961112       0.00064988       0.53562245 </v>
    <v>       0.74414607       0.25357953       0.53897884 </v>
    <v>       0.99776545       0.00196317       0.53551202 </v>
    <v>       0.99823552       0.25014583       0.53542586 </v>
    <v>       0.57803303       0.33630970       0.61780178 </v>
    <v>       0.58361223       0.08108693       0.60942380 </v>
    <v>       0.83592831       0.33443306       0.60963863 </v>
    <v>       0.83434948       0.08161549       0.60946449 </v>
    <v>       0.58333000       0.83333000       0.39081000 </v>
    <v>       0.58333000       0.58333000       0.39081000 </v>
    <v>       0.83333000       0.83333000       0.39081000 </v>
    <v>       0.83333000       0.58333000       0.39081000 </v>
    <v>       0.91667000       0.66667000       0.46360000 </v>
    <v>       0.91667000       0.91667000       0.46360000 </v>
    <v>       0.66667000       0.66667000       0.46360000 </v>
    <v>       0.66667000       0.91667000       0.46360000 </v>
    <v>       0.74979950       0.50005527       0.53576514 </v>
    <v>       0.74975480       0.75028326       0.53571895 </v>
    <v>       0.00015184       0.49967267       0.53567157 </v>
    <v>       0.00008521       0.75021197       0.53572054 </v>
    <v>       0.58234135       0.83455069       0.60867161 </v>
    <v>       0.58339667       0.58934953       0.60914219 </v>
    <v>       0.83240509       0.83481360       0.60880277 </v>
    <v>       0.83331105       0.58393674       0.60884762 </v>
    <v>       0.48585924       0.42482878       0.71736234 </v>
    <v>       0.55789780       0.37443825       0.67433458 </v>
    <v>       0.65955362       0.36140556       0.68367222 </v>
   </varray>
  </structure>
  <varray name="forces" >
   <v>      -0.00453654      -0.01216244      -0.05607856 </v>
   <v>       0.08918258      -0.05692892      -0.14218892 </v>
   <v>      -0.00426019      -0.02368517      -0.06096496 </v>
   <v>      -0.07549498      -0.04506368      -0.11275857 </v>
   <v>       0.14145150       0.06843528       0.05394469 </v>
   <v>       0.11415641      -0.05251733       0.37347402 </v>
   <v>      -0.01142874       0.00491336       0.04362270 </v>
   <v>       0.04745793       0.02737472       0.01161951 </v>
   <v>      -0.01095247       0.01144618      -0.00163125 </v>
   <v>      -0.02738853      -0.00040717      -0.00949502 </v>
   <v>      -0.01631291      -0.01027812      -0.00933154 </v>
   <v>      -0.12092727      -0.07917793      -0.24331756 </v>
   <v>      -0.00198525       0.01421262       0.04426758 </v>
   <v>       0.01111665       0.02090404       0.00087995 </v>
   <v>       0.06932105       0.03509174      -0.04259727 </v>
   <v>      -0.01467106       0.00699050       0.00810371 </v>
   <v>       0.01062935       0.01474468      -0.05995005 </v>
   <v>       0.00605493      -0.00606020      -0.04388483 </v>
   <v>      -0.00185900       0.08584882      -0.13000699 </v>
   <v>       0.01634714       0.01140921      -0.06371378 </v>
   <v>       0.00870709      -0.12568078       0.03034152 </v>
   <v>      -0.01017003       0.01614540       0.01680561 </v>
   <v>      -0.00324699      -0.04786205      -0.00188421 </v>
   <v>      -0.01282575       0.02202295       0.04653427 </v>
   <v>       0.02684931       0.00459910       0.00518937 </v>
   <v>      -0.00547072      -0.00299661       0.02934839 </v>
   <v>       0.00632056       0.06184109      -0.14113870 </v>
   <v>      -0.00336274       0.02221731      -0.01452531 </v>
   <v>      -0.01071785       0.01113952       0.01645757 </v>
   <v>      -0.02621829       0.01828910      -0.00339064 </v>
   <v>      -0.00879983      -0.01086720      -0.01452775 </v>
[...]
       <r>   -19.5060     0.0000     2.0000 </r>
       <r>   -19.4055     0.0000     2.0000 </r>
       <r>   -19.3049     0.0000     2.0000 </r>
       <r>   -19.2044     0.0000     2.0000 </r>
       <r>   -19.1039     0.0000     2.0000 </r>
       <r>   -19.0034     0.0000     2.0000 </r>
       <r>   -18.9028     0.0000     2.0000 </r>
       <r>   -18.8023     0.0000     2.0000 </r>
       <r>   -18.7018     0.0000     2.0000 </r>
       <r>   -18.6013     0.0000     2.0000 </r>
       <r>   -18.5008     0.0000     2.0000 </r>
       <r>   -18.4002     0.0000     2.0000 </r>
       <r>   -18.2997     0.0000     2.0000 </r>
       <r>   -18.1992     0.0000     2.0000 </r>
       <r>   -18.0987     0.0000     2.0000 </r>
       <r>   -17.9981     0.0000     2.0000 </r>
       <r>   -17.8976     0.0000     2.0000 </r>
       <r>   -17.7971     0.0000     2.0000 </r>
       <r>   -17.6966     0.0000     2.0000 </r>
       <r>   -17.5960     0.0000     2.0000 </r>
       <r>   -17.4955     0.0000     2.0000 </r>
       <r>   -17.3950     0.0000     2.0000 </r>
       <r>   -17.2945     0.0000     2.0000 </r>
       <r>   -17.1940     0.0000     2.0000 </r>
       <r>   -17.0934     0.0000     2.0000 </r>
       <r>   -16.9929     0.0000     2.0000 </r>
       <r>   -16.8924     0.0000     2.0000 </r>
       <r>   -16.7919     0.0000     2.0000 </r>
       <r>   -16.6913     0.0000     2.0000 </r>
       <r>   -16.5908     0.0000     2.0000 </r>
       <r>   -16.4903     0.0000     2.0000 </r>
       <r>   -16.3898     0.0000     2.0000 </r>
       <r>   -16.2893     0.0000     2.0000 </r>
       <r>   -16.1887     0.0000     2.0000 </r>
       <r>   -16.0882     0.0000     2.0000 </r>
       <r>   -15.9877     0.0000     2.0000 </r>
       <r>   -15.8872     0.0000     2.0000 </r>
       <r>   -15.7866     0.0000     2.0000 </r>
       <r>   -15.6861     0.0000     2.0000 </r>
       <r>   -15.5856     0.0000     2.0000 </r>
       <r>   -15.4851     0.0000     2.0000 </r>
       <r>   -15.3845     0.0000     2.0000 </r>
       <r>   -15.2840     0.0000     2.0000 </r>
       <r>   -15.1835     0.0000     2.0000 </r>
       <r>   -15.0830     0.0000     2.0000 </r>
       <r>   -14.9825     0.0000     2.0000 </r>
       <r>   -14.8819     0.0000     2.0000 </r>
       <r>   -14.7814     0.0000     2.0000 </r>
       <r>   -14.6809     0.0000     2.0000 </r>
       <r>   -14.5804     0.0000     2.0000 </r>
       <r>   -14.4798     0.0000     2.0000 </r>
       <r>   -14.3793     0.0000     2.0000 </r>
       <r>   -14.2788     0.0000     2.0000 </r>
       <r>   -14.1783     0.0000     2.0000 </r>
       <r>   -14.0778     0.0000     2.0000 </r>
       <r>   -13.9772     0.0000     2.0000 </r>
       <r>   -13.8767     0.0000     2.0000 </r>
       <r>   -13.7762     0.0000     2.0000 </r>
       <r>   -13.6757     0.0000     2.0000 </r>
       <r>   -13.5751     0.0000     2.0000 </r>
       <r>   -13.4746     0.0000     2.0000 </r>
       <r>   -13.3741     0.0000     2.0000 </r>
       <r>   -13.2736     0.0000     2.0000 </r>
       <r>   -13.1730     0.0000     2.0000 </r>
       <r>   -13.0725     0.0000     2.0000 </r>
       <r>   -12.9720     0.0000     2.0000 </r>
       <r>   -12.8715     0.0000     2.0000 </r>
       <r>   -12.7710     0.0000     2.0000 </r>
       <r>   -12.6704     0.0000     2.0000 </r>
       <r>   -12.5699     0.0000     2.0000 </r>
       <r>   -12.4694     0.0000     2.0000 </r>
       <r>   -12.3689     0.0000     2.0000 </r>
       <r>   -12.2683     0.0000     2.0000 </r>
       <r>   -12.1678    -0.0000     2.0000 </r>
       <r>   -12.0673    -0.0000     2.0000 </r>
       <r>   -11.9668    -0.0000     2.0000 </r>
       <r>   -11.8663    -0.0000     2.0000 </r>
       <r>   -11.7657    -0.0000     2.0000 </r>
       <r>   -11.6652    -0.0001     2.0000 </r>
       <r>   -11.5647    -0.0305     1.9969 </r>
       <r>   -11.4642    -0.5786     1.9388 </r>
       <r>   -11.3636     4.0695     2.3478 </r>
       <r>   -11.2631    14.6652     3.8220 </r>
       <r>   -11.1626     2.2428     4.0475 </r>
       <r>   -11.0621    -0.4570     4.0015 </r>
       <r>   -10.9615    -0.0152     4.0000 </r>
       <r>   -10.8610    -0.0000     4.0000 </r>
       <r>   -10.7605    -0.0000     4.0000 </r>
       <r>   -10.6600    -0.0000     4.0000 </r>
       <r>   -10.5595    -0.0000     4.0000 </r>
       <r>   -10.4589    -0.0009     3.9999 </r>
       <r>   -10.3584    -0.0297     3.9969 </r>
       <r>   -10.2579     0.0616     4.0031 </r>
       <r>   -10.1574     0.9076     4.0944 </r>
       <r>   -10.0568     4.7089     4.5677 </r>
       <r>    -9.9563     3.0891     4.8782 </r>
       <r>    -9.8558     0.9509     4.9738 </r>
       <r>    -9.7553     5.9147     5.5684 </r>
       <r>    -9.6548     6.1239     6.1840 </r>
       <r>    -9.5542     2.1206     6.3971 </r>
       <r>    -9.4537    -0.6722     6.3296 </r>
       <r>    -9.3532     3.7611     6.7076 </r>
       <r>    -9.2527    10.4205     7.7551 </r>
       <r>    -9.1521     2.2085     7.9771 </r>
       <r>    -9.0516     5.1798     8.4978 </r>
       <r>    -8.9511     1.4369     8.6423 </r>
       <r>    -8.8506     0.3840     8.6809 </r>
       <r>    -8.7500     9.0414     9.5897 </r>
       <r>    -8.6495    16.4390    11.2422 </r>
       <r>    -8.5490     6.7064    11.9164 </r>
       <r>    -8.4485     7.7864    12.6991 </r>
       <r>    -8.3480    11.3804    13.8431 </r>
       <r>    -8.2474     1.3814    13.9819 </r>
       <r>    -8.1469     1.1568    14.0982 </r>
       <r>    -8.0464    22.9613    16.4063 </r>
       <r>    -7.9459    22.2348    18.6414 </r>
       <r>    -7.8453    13.8588    20.0346 </r>
       <r>    -7.7448    17.4412    21.7878 </r>
       <r>    -7.6443     6.7948    22.4708 </r>
       <r>    -7.5438    25.9115    25.0755 </r>
       <r>    -7.4433    51.4936    30.2518 </r>
       <r>    -7.3427    49.4850    35.2262 </r>
       <r>    -7.2422    33.1377    38.5573 </r>
       <r>    -7.1417    56.2524    44.2119 </r>
       <r>    -7.0412    66.8179    50.9286 </r>
       <r>    -6.9406    52.3926    56.1953 </r>
       <r>    -6.8401    56.5408    61.8789 </r>
       <r>    -6.7396    65.4965    68.4628 </r>
       <r>    -6.6391    71.3038    75.6304 </r>
       <r>    -6.5385    97.8864    85.4702 </r>
       <r>    -6.4380   106.2775    96.1536 </r>
       <r>    -6.3375    98.7248   106.0776 </r>
       <r>    -6.2370   100.4032   116.1704 </r>
       <r>    -6.1365    89.4833   125.1656 </r>
       <r>    -6.0359    72.2916   132.4325 </r>
       <r>    -5.9354    68.2141   139.2896 </r>
       <r>    -5.8349    57.1997   145.0394 </r>
       <r>    -5.7344    28.1612   147.8703 </r>
       <r>    -5.6338    76.8548   155.5959 </r>
       <r>    -5.5333   102.7735   165.9270 </r>
       <r>    -5.4328    80.0930   173.9782 </r>
       <r>    -5.3323    74.3847   181.4555 </r>
       <r>    -5.2318    83.9930   189.8987 </r>
       <r>    -5.1312    96.2586   199.5749 </r>
       <r>    -5.0307    80.2062   207.6375 </r>
       <r>    -4.9302    77.6202   215.4400 </r>
       <r>    -4.8297    57.7259   221.2428 </r>
       <r>    -4.7291    77.2818   229.0114 </r>
       <r>    -4.6286    96.2028   238.6819 </r>
       <r>    -4.5281   110.0230   249.7418 </r>
       <r>    -4.4276   131.6946   262.9801 </r>
       <r>    -4.3270   124.8304   275.5284 </r>
       <r>    -4.2265    94.3466   285.0123 </r>
       <r>    -4.1260   131.5429   298.2354 </r>
       <r>    -4.0255   155.0200   313.8184 </r>
       <r>    -3.9250   148.6370   328.7598 </r>
       <r>    -3.8244   142.6742   343.1018 </r>
       <r>    -3.7239   145.1133   357.6890 </r>
       <r>    -3.6234   148.6835   372.6351 </r>
       <r>    -3.5229   120.9922   384.7975 </r>
       <r>    -3.4223    73.7227   392.2083 </r>
       <r>    -3.3218    78.4738   400.0967 </r>
       <r>    -3.2213    73.7877   407.5141 </r>
       <r>    -3.1208    64.6495   414.0128 </r>
       <r>    -3.0203    99.8056   424.0456 </r>
       <r>    -2.9197   151.5034   439.2751 </r>
       <r>    -2.8192   125.7289   451.9137 </r>
       <r>    -2.7187    82.3155   460.1883 </r>
       <r>    -2.6182    79.6320   468.1931 </r>
       <r>    -2.5176    74.8990   475.7222 </r>
       <r>    -2.4171    87.9586   484.5640 </r>
       <r>    -2.3166    87.9497   493.4049 </r>
       <r>    -2.2161   103.6392   503.8230 </r>
       <r>    -2.1155   104.6080   514.3385 </r>
       <r>    -2.0150   141.9349   528.6062 </r>
       <r>    -1.9145   140.5372   542.7334 </r>
       <r>    -1.8140   113.6002   554.1528 </r>
       <r>    -1.7135    93.8790   563.5898 </r>
       <r>    -1.6129    50.5200   568.6682 </r>
       <r>    -1.5124    93.5555   578.0726 </r>
       <r>    -1.4119   116.7141   589.8050 </r>
       <r>    -1.3114   115.0065   601.3658 </r>
       <r>    -1.2108    85.9341   610.0041 </r>
       <r>    -1.1103   113.5222   621.4157 </r>
       <r>    -1.0098   144.6110   635.9524 </r>
       <r>    -0.9093   166.3199   652.6713 </r>
       <r>    -0.8088   125.3470   665.2715 </r>
       <r>    -0.7082   102.0213   675.5270 </r>
       <r>    -0.6077    97.0719   685.2849 </r>
       <r>    -0.5072    47.0500   690.0145 </r>
       <r>    -0.4067     7.1972   690.7380 </r>
       <r>    -0.3061    24.2809   693.1788 </r>
       <r>    -0.2056    24.8194   695.6737 </r>
       <r>    -0.1051    15.9377   697.2758 </r>
       <r>    -0.0046    22.4207   699.5296 </r>
       <r>     0.0960    28.2737   702.3718 </r>
       <r>     0.1965    22.4493   704.6284 </r>
       <r>     0.2970    35.7801   708.2251 </r>
       <r>     0.3975    28.5266   711.0927 </r>
       <r>     0.4980    20.9202   713.1957 </r>
       <r>     0.5986    15.0564   714.7092 </r>
       <r>     0.6991     6.0237   715.3147 </r>
       <r>     0.7996     2.9014   715.6064 </r>
       <r>     0.9001    13.7005   716.9836 </r>
       <r>     1.0007    23.4117   719.3370 </r>
       <r>     1.1012    28.0426   722.1559 </r>
       <r>     1.2017    23.5893   724.5272 </r>
       <r>     1.3022    26.2233   727.1632 </r>
       <r>     1.4027    33.5372   730.5344 </r>
       <r>     1.5033    24.5074   732.9980 </r>
       <r>     1.6038    25.2816   735.5394 </r>
       <r>     1.7043    15.2944   737.0768 </r>
       <r>     1.8048    14.5269   738.5371 </r>
       <r>     1.9054    16.6142   740.2072 </r>
       <r>     2.0059    17.3711   741.9534 </r>
       <r>     2.1064    26.7576   744.6431 </r>
       <r>     2.2069    19.1969   746.5729 </r>
       <r>     2.3075    15.2122   748.1020 </r>
       <r>     2.4080    27.7502   750.8916 </r>
       <r>     2.5085    21.3853   753.0413 </r>
       <r>     2.6090    13.7824   754.4267 </r>
       <r>     2.7095    17.4305   756.1789 </r>
       <r>     2.8101    24.4539   758.6370 </r>
       <r>     2.9106    25.4876   761.1991 </r>
       <r>     3.0111    28.8796   764.1022 </r>
       <r>     3.1116    15.3598   765.6462 </r>
       <r>     3.2122     7.9174   766.4421 </r>
       <r>     3.3127    17.4672   768.1979 </r>
       <r>     3.4132    37.9049   772.0082 </r>
       <r>     3.5137    17.9442   773.8120 </r>
       <r>     3.6142    11.9468   775.0129 </r>
       <r>     3.7148    13.5925   776.3793 </r>
       <r>     3.8153     9.1808   777.3022 </r>
       <r>     3.9158     1.8308   777.4862 </r>
       <r>     4.0163    12.9568   778.7887 </r>
       <r>     4.1169    16.9020   780.4877 </r>
       <r>     4.2174    18.2344   782.3207 </r>
       <r>     4.3179     9.4194   783.2675 </r>
       <r>     4.4184     2.7856   783.5476 </r>
       <r>     4.5190     4.4407   783.9939 </r>
       <r>     4.6195     0.1583   784.0099 </r>
       <r>     4.7200    -0.0961   784.0002 </r>
       <r>     4.8205    -0.0020   784.0000 </r>
       <r>     4.9210    -0.0000   784.0000 </r>
       <r>     5.0216    -0.0000   784.0000 </r>
       <r>     5.1221    -0.0000   784.0000 </r>
       <r>     5.2226     0.0000   784.0000 </r>
       <r>     5.3231     0.0000   784.0000 </r>
       <r>     5.4237     0.0000   784.0000 </r>
       <r>     5.5242     0.0000   784.0000 </r>
       <r>     5.6247     0.0000   784.0000 </r>
       <r>     5.7252     0.0000   784.0000 </r>
       <r>     5.8257     0.0000   784.0000 </r>
      </set>
     </set>
    </array>
   </total>
  </dos>
 </calculation>
 <structure name="finalpos" >
  <crystal>
   <varray name="basis" >
    <v>      11.21440000       0.00000000       0.00000000 </v>
    <v>       5.60720000       9.71195529       0.00000000 </v>
    <v>       0.00000000       0.00000000      31.44560000 </v>
   </varray>
   <i name="volume">   3424.85826052 </i>
   <varray name="rec_basis" >
    <v>       0.08917107      -0.05148294       0.00000000 </v>
    <v>       0.00000000       0.10296588       0.00000000 </v>
    <v>       0.00000000       0.00000000       0.03180095 </v>
   </varray>
  </crystal>
  <varray name="positions" >
   <v>       0.08333000       0.33333000       0.39081000 </v>
   <v>       0.08333000       0.08333000       0.39081000 </v>
   <v>       0.33333000       0.33333000       0.39081000 </v>
   <v>       0.33333000       0.08333000       0.39081000 </v>
   <v>       0.41667000       0.16667000       0.46360000 </v>
   <v>       0.41667000       0.41667000       0.46360000 </v>
   <v>       0.16667000       0.16667000       0.46360000 </v>
   <v>       0.16667000       0.41667000       0.46360000 </v>
   <v>       0.24992021       0.00073788       0.53558213 </v>
   <v>       0.25071799       0.25078149       0.53541258 </v>
   <v>       0.49997823       0.00183639       0.53557957 </v>
   <v>       0.50146160       0.25292383       0.53739454 </v>
   <v>       0.08348913       0.33513523       0.60877191 </v>
   <v>       0.08284342       0.08597852       0.60876949 </v>
   <v>       0.33213481       0.33560058       0.60880712 </v>
   <v>       0.33343322       0.08579564       0.60873840 </v>
   <v>       0.08333000       0.83333000       0.39081000 </v>
   <v>       0.08333000       0.58333000       0.39081000 </v>
   <v>       0.33333000       0.83333000       0.39081000 </v>
   <v>       0.33333000       0.58333000       0.39081000 </v>
   <v>       0.41667000       0.66667000       0.46360000 </v>
   <v>       0.41667000       0.91667000       0.46360000 </v>
   <v>       0.16667000       0.66667000       0.46360000 </v>
   <v>       0.16667000       0.91667000       0.46360000 </v>
   <v>       0.24978862       0.50087083       0.53567888 </v>
   <v>       0.25032204       0.75029350       0.53536412 </v>
   <v>       0.50132975       0.49830243       0.53743516 </v>
   <v>       0.49993351       0.75009970       0.53548555 </v>
   <v>       0.08322605       0.83608822       0.60878273 </v>
   <v>       0.08271076       0.58579598       0.60876551 </v>
   <v>       0.33297619       0.83600911       0.60874760 </v>
   <v>       0.33120321       0.58751032       0.60869195 </v>
   <v>       0.58333000       0.33333000       0.39081000 </v>
   <v>       0.58333000       0.08333000       0.39081000 </v>
   <v>       0.83333000       0.33333000       0.39081000 </v>
   <v>       0.83333000       0.08333000       0.39081000 </v>
   <v>       0.91667000       0.16667000       0.46360000 </v>
   <v>       0.91667000       0.41667000       0.46360000 </v>
   <v>       0.66667000       0.16667000       0.46360000 </v>
   <v>       0.66667000       0.41667000       0.46360000 </v>
   <v>       0.74958145       0.00128574       0.53578231 </v>
   <v>       0.74666373       0.25288134       0.53733126 </v>
   <v>       0.99885064       0.00175608       0.53553852 </v>
   <v>       0.99943382       0.25055113       0.53535621 </v>
   <v>       0.58187897       0.33769881       0.61863714 </v>
   <v>       0.58328860       0.08525110       0.60907362 </v>
   <v>       0.83457696       0.33575062       0.60874891 </v>
   <v>       0.83382764       0.08516497       0.60894330 </v>
   <v>       0.58333000       0.83333000       0.39081000 </v>
   <v>       0.58333000       0.58333000       0.39081000 </v>
   <v>       0.83333000       0.83333000       0.39081000 </v>
   <v>       0.83333000       0.58333000       0.39081000 </v>
   <v>       0.91667000       0.66667000       0.46360000 </v>
   <v>       0.91667000       0.91667000       0.46360000 </v>
   <v>       0.66667000       0.66667000       0.46360000 </v>
   <v>       0.66667000       0.91667000       0.46360000 </v>
   <v>       0.74988387       0.50086992       0.53576907 </v>
   <v>       0.74958262       0.75104704       0.53575285 </v>
   <v>      -0.00002078       0.50044658       0.53569906 </v>
   <v>      -0.00031950       0.75119192       0.53575323 </v>
   <v>       0.58271828       0.83601753       0.60880555 </v>
   <v>       0.58308648       0.58744663       0.60901926 </v>
   <v>       0.83296839       0.83592610       0.60888365 </v>
   <v>       0.83335734       0.58590630       0.60885814 </v>
   <v>       0.47913154       0.38446010       0.70403567 </v>
   <v>       0.57805905       0.34967734       0.68162642 </v>
   <v>       0.68204666       0.32038149       0.69443471 </v>
  </varray>
  <varray name="selective"  type="logical" >
   <v type="logical" >  F  F  F </v>
   <v type="logical" >  F  F  F </v>
   <v type="logical" >  F  F  F </v>
   <v type="logical" >  F  F  F </v>
   <v type="logical" >  F  F  F </v>
   <v type="logical" >  F  F  F </v>
   <v type="logical" >  F  F  F </v>
   <v type="logical" >  F  F  F </v>
   <v type="logical" >  T  T  T </v>
   <v type="logical" >  T  T  T </v>
   <v type="logical" >  T  T  T </v>
   <v type="logical" >  T  T  T </v>
   <v type="logical" >  T  T  T </v>
   <v type="logical" >  T  T  T </v>
   <v type="logical" >  T  T  T </v>
   <v type="logical" >  T  T  T </v>
   <v type="logical" >  F  F  F </v>
   <v type="logical" >  F  F  F </v>
   <v type="logical" >  F  F  F </v>
   <v type="logical" >  F  F  F </v>
   <v type="logical" >  F  F  F </v>
   <v type="logical" >  F  F  F </v>
   <v type="logical" >  F  F  F </v>
   <v type="logical" >  F  F  F </v>
   <v type="logical" >  T  T  T </v>
   <v type="logical" >  T  T  T </v>
   <v type="logical" >  T  T  T </v>
   <v type="logical" >  T  T  T </v>
   <v type="logical" >  T  T  T </v>
   <v type="logical" >  T  T  T </v>
   <v type="logical" >  T  T  T </v>
   <v type="logical" >  T  T  T </v>
   <v type="logical" >  F  F  F </v>
   <v type="logical" >  F  F  F </v>
   <v type="logical" >  F  F  F </v>
   <v type="logical" >  F  F  F </v>
   <v type="logical" >  F  F  F </v>
   <v type="logical" >  F  F  F </v>
   <v type="logical" >  F  F  F </v>
   <v type="logical" >  F  F  F </v>
   <v type="logical" >  T  T  T </v>
   <v type="logical" >  T  T  T </v>
   <v type="logical" >  T  T  T </v>
   <v type="logical" >  T  T  T </v>
   <v type="logical" >  T  T  T </v>
   <v type="logical" >  T  T  T </v>
   <v type="logical" >  T  T  T </v>
   <v type="logical" >  T  T  T </v>
   <v type="logical" >  F  F  F </v>
   <v type="logical" >  F  F  F </v>
   <v type="logical" >  F  F  F </v>
   <v type="logical" >  F  F  F </v>
   <v type="logical" >  F  F  F </v>
   <v type="logical" >  F  F  F </v>
   <v type="logical" >  F  F  F </v>
   <v type="logical" >  F  F  F </v>
   <v type="logical" >  T  T  T </v>
   <v type="logical" >  T  T  T </v>
   <v type="logical" >  T  T  T </v>
   <v type="logical" >  T  T  T </v>
   <v type="logical" >  T  T  T </v>
   <v type="logical" >  T  T  T </v>
   <v type="logical" >  T  T  T </v>
   <v type="logical" >  T  T  T </v>
   <v type="logical" >  T  T  T </v>
   <v type="logical" >  T  T  T </v>
   <v type="logical" >  T  T  T </v>
  </varray>
  <nose>
   <v>      -3.00000000       0.00000000       0.00010000       0.00010000 </v>
  </nose>
 </structure>
</modeling>
