Pt                                      
           1
    11.214400    0.000000    0.000000
     5.607200    9.711955    0.000000
     0.000000    0.000000   31.445600
   Pt   O    C    H 
  64   1   1   1
Direct configuration=     1
   0.08333000  0.33333000  0.39081000
   0.08333000  0.08333000  0.39081000
   0.33333000  0.33333000  0.39081000
   0.33333000  0.08333000  0.39081000
   0.41667000  0.16667000  0.46360000
   0.41667000  0.41667000  0.46360000
   0.16667000  0.16667000  0.46360000
   0.16667000  0.41667000  0.46360000
   0.24976547  0.00026160  0.53562177
   0.25124544  0.25014567  0.53540273
   0.50004942  0.00185336  0.53549061
   0.50080941  0.25249805  0.53871925
   0.08328945  0.33279480  0.60863330
   0.08153259  0.08424770  0.60893964
   0.32766440  0.33337582  0.60941751
   0.33322154  0.08361023  0.60879355
   0.08333000  0.83333000  0.39081000
   0.08333000  0.58333000  0.39081000
   0.33333000  0.83333000  0.39081000
   0.33333000  0.58333000  0.39081000
   0.41667000  0.66667000  0.46360000
   0.41667000  0.91667000  0.46360000
   0.16667000  0.66667000  0.46360000
   0.16667000  0.91667000  0.46360000
   0.24921678  0.50027687  0.53579264
   0.25045697  0.74979835  0.53509843
   0.50026052  0.49855567  0.53856958
   0.50002688  0.74949693  0.53536502
   0.08235011  0.83507284  0.60874498
   0.08159291  0.58442681  0.60902610
   0.33244843  0.83556381  0.60891199
   0.32509522  0.59173087  0.60894782
   0.58333000  0.33333000  0.39081000
   0.58333000  0.08333000  0.39081000
   0.83333000  0.33333000  0.39081000
   0.83333000  0.08333000  0.39081000
   0.91667000  0.16667000  0.46360000
   0.91667000  0.41667000  0.46360000
   0.66667000  0.16667000  0.46360000
   0.66667000  0.41667000  0.46360000
   0.74954954  0.00059417  0.53552376
   0.74502726  0.25318133  0.53915178
   0.99736328  0.00224308  0.53553862
   0.99758667  0.25023974  0.53545826
   0.57922012  0.33754482  0.61972789
   0.58354672  0.08132727  0.60941447
   0.83584213  0.33419446  0.60957076
   0.83399435  0.08215948  0.60955203
   0.58333000  0.83333000  0.39081000
   0.58333000  0.58333000  0.39081000
   0.83333000  0.83333000  0.39081000
   0.83333000  0.58333000  0.39081000
   0.91667000  0.66667000  0.46360000
   0.91667000  0.91667000  0.46360000
   0.66667000  0.66667000  0.46360000
   0.66667000  0.91667000  0.46360000
   0.75017247  0.50020637  0.53572578
   0.74952026  0.75006509  0.53573259
   0.00021312  0.49964261  0.53566851
   0.00062992  0.74987879  0.53571464
   0.58246957  0.83419079  0.60859213
   0.58328173  0.58925364  0.60920573
   0.83231725  0.83507394  0.60880602
   0.83315285  0.58373097  0.60882963
   0.50675521  0.41553435  0.71074132
   0.54023093  0.37955911  0.67603318
   0.65499837  0.36525693  0.68694349
Direct configuration=     2
   0.08333000  0.33333000  0.39081000
   0.08333000  0.08333000  0.39081000
   0.33333000  0.33333000  0.39081000
   0.33333000  0.08333000  0.39081000
   0.41667000  0.16667000  0.46360000
   0.41667000  0.41667000  0.46360000
   0.16667000  0.16667000  0.46360000
   0.16667000  0.41667000  0.46360000
   0.24958610  0.00045799  0.53562786
   0.25081902  0.25006494  0.53534118
   0.50002682  0.00151783  0.53546639
   0.50095777  0.25263787  0.53845566
   0.08327767  0.33285859  0.60868173
   0.08164369  0.08425927  0.60892787
   0.32781146  0.33369028  0.60938049
   0.33313001  0.08361862  0.60881210
   0.08333000  0.83333000  0.39081000
   0.08333000  0.58333000  0.39081000
   0.33333000  0.83333000  0.39081000
   0.33333000  0.58333000  0.39081000
   0.41667000  0.66667000  0.46360000
   0.41667000  0.91667000  0.46360000
   0.16667000  0.66667000  0.46360000
   0.16667000  0.91667000  0.46360000
   0.24970135  0.50014080  0.53584482
   0.25027396  0.75008606  0.53519668
   0.50052525  0.49824445  0.53831406
   0.49971176  0.74980506  0.53528307
   0.08220621  0.83524276  0.60876017
   0.08125908  0.58459383  0.60903280
   0.33234313  0.83550276  0.60888116
   0.32539319  0.59131175  0.60890290
   0.58333000  0.33333000  0.39081000
   0.58333000  0.08333000  0.39081000
   0.83333000  0.33333000  0.39081000
   0.83333000  0.08333000  0.39081000
   0.91667000  0.16667000  0.46360000
   0.91667000  0.41667000  0.46360000
   0.66667000  0.16667000  0.46360000
   0.66667000  0.41667000  0.46360000
   0.74961112  0.00064988  0.53562245
   0.74414607  0.25357953  0.53897884
   0.99776545  0.00196317  0.53551202
   0.99823552  0.25014583  0.53542586
   0.57803303  0.33630970  0.61780178
   0.58361223  0.08108693  0.60942380
   0.83592831  0.33443306  0.60963863
   0.83434948  0.08161549  0.60946449
   0.58333000  0.83333000  0.39081000
   0.58333000  0.58333000  0.39081000
   0.83333000  0.83333000  0.39081000
   0.83333000  0.58333000  0.39081000
   0.91667000  0.66667000  0.46360000
   0.91667000  0.91667000  0.46360000
   0.66667000  0.66667000  0.46360000
   0.66667000  0.91667000  0.46360000
   0.74979950  0.50005527  0.53576514
   0.74975480  0.75028326  0.53571895
   0.00015184  0.49967267  0.53567157
   0.00008521  0.75021197  0.53572054
   0.58234135  0.83455069  0.60867161
   0.58339667  0.58934953  0.60914219
   0.83240509  0.83481360  0.60880277
   0.83331105  0.58393674  0.60884762
   0.48585924  0.42482878  0.71736234
   0.55789780  0.37443825  0.67433458
   0.65955362  0.36140556  0.68367222
Direct configuration=     3
   0.08333000  0.33333000  0.39081000
   0.08333000  0.08333000  0.39081000
   0.33333000  0.33333000  0.39081000
   0.33333000  0.08333000  0.39081000
   0.41667000  0.16667000  0.46360000
   0.41667000  0.41667000  0.46360000
   0.16667000  0.16667000  0.46360000
   0.16667000  0.41667000  0.46360000
   0.24971239  0.00031972  0.53562357
   0.25111926  0.25012178  0.53538452
   0.50004273  0.00175407  0.53548344
   0.50085331  0.25253943  0.53864125
   0.08328597  0.33281368  0.60864763
   0.08156547  0.08425113  0.60893616
   0.32770792  0.33346887  0.60940656
   0.33319446  0.08361271  0.60879904
   0.08333000  0.83333000  0.39081000
   0.08333000  0.58333000  0.39081000
   0.33333000  0.83333000  0.39081000
   0.33333000  0.58333000  0.39081000
   0.41667000  0.66667000  0.46360000
   0.41667000  0.91667000  0.46360000
   0.16667000  0.66667000  0.46360000
   0.16667000  0.91667000  0.46360000
   0.24936017  0.50023660  0.53580808
   0.25040281  0.74988349  0.53512751
   0.50033885  0.49846358  0.53849397
   0.49993363  0.74958810  0.53534077
   0.08230753  0.83512312  0.60874948
   0.08149413  0.58447623  0.60902808
   0.33241727  0.83554574  0.60890287
   0.32518339  0.59160685  0.60893453
   0.58333000  0.33333000  0.39081000
   0.58333000  0.08333000  0.39081000
   0.83333000  0.33333000  0.39081000
   0.83333000  0.08333000  0.39081000
   0.91667000  0.16667000  0.46360000
   0.91667000  0.41667000  0.46360000
   0.66667000  0.16667000  0.46360000
   0.66667000  0.41667000  0.46360000
   0.74956776  0.00061065  0.53555297
   0.74476651  0.25329916  0.53910060
   0.99748229  0.00216025  0.53553075
   0.99777867  0.25021195  0.53544867
   0.57886884  0.33717933  0.61915793
   0.58356610  0.08125615  0.60941723
   0.83586763  0.33426506  0.60959085
   0.83409943  0.08199851  0.60952613
   0.58333000  0.83333000  0.39081000
   0.58333000  0.58333000  0.39081000
   0.83333000  0.83333000  0.39081000
   0.83333000  0.58333000  0.39081000
   0.91667000  0.66667000  0.46360000
   0.91667000  0.91667000  0.46360000
   0.66667000  0.66667000  0.46360000
   0.66667000  0.91667000  0.46360000
   0.75006211  0.50016166  0.53573743
   0.74958966  0.75012965  0.53572855
   0.00019499  0.49965151  0.53566942
   0.00046873  0.74997738  0.53571639
   0.58243163  0.83429729  0.60861565
   0.58331574  0.58928202  0.60918693
   0.83234324  0.83499691  0.60880506
   0.83319966  0.58379186  0.60883495
   0.50057185  0.41828468  0.71270055
   0.54545876  0.37804379  0.67553055
   0.65634632  0.36411727  0.68597548
Direct configuration=     4
   0.08333000  0.33333000  0.39081000
   0.08333000  0.08333000  0.39081000
   0.33333000  0.33333000  0.39081000
   0.33333000  0.08333000  0.39081000
   0.41667000  0.16667000  0.46360000
   0.41667000  0.41667000  0.46360000
   0.16667000  0.16667000  0.46360000
   0.16667000  0.41667000  0.46360000
   0.24958226  0.00045859  0.53562659
   0.25081453  0.25007336  0.53534233
   0.50002176  0.00151783  0.53546648
   0.50091789  0.25259123  0.53842564
   0.08327378  0.33286630  0.60868866
   0.08164165  0.08427068  0.60892818
   0.32783697  0.33369903  0.60937222
   0.33312671  0.08362140  0.60881237
   0.08333000  0.83333000  0.39081000
   0.08333000  0.58333000  0.39081000
   0.33333000  0.83333000  0.39081000
   0.33333000  0.58333000  0.39081000
   0.41667000  0.66667000  0.46360000
   0.41667000  0.91667000  0.46360000
   0.16667000  0.66667000  0.46360000
   0.16667000  0.91667000  0.46360000
   0.24970174  0.50014880  0.53584532
   0.25027930  0.75007129  0.53520103
   0.50050886  0.49829023  0.53829881
   0.49970799  0.74981080  0.53528142
   0.08220126  0.83524361  0.60876257
   0.08125607  0.58459704  0.60903399
   0.33234616  0.83549825  0.60887938
   0.32544993  0.59125597  0.60890126
   0.58333000  0.33333000  0.39081000
   0.58333000  0.08333000  0.39081000
   0.83333000  0.33333000  0.39081000
   0.83333000  0.08333000  0.39081000
   0.91667000  0.16667000  0.46360000
   0.91667000  0.41667000  0.46360000
   0.66667000  0.16667000  0.46360000
   0.66667000  0.41667000  0.46360000
   0.74961078  0.00065629  0.53562174
   0.74421844  0.25354194  0.53896472
   0.99776614  0.00197310  0.53550964
   0.99824468  0.25013461  0.53542003
   0.57769532  0.33623059  0.61743891
   0.58359396  0.08111488  0.60942338
   0.83591364  0.33443710  0.60960533
   0.83433886  0.08164623  0.60945554
   0.58333000  0.83333000  0.39081000
   0.58333000  0.58333000  0.39081000
   0.83333000  0.83333000  0.39081000
   0.83333000  0.58333000  0.39081000
   0.91667000  0.66667000  0.46360000
   0.91667000  0.91667000  0.46360000
   0.66667000  0.66667000  0.46360000
   0.66667000  0.91667000  0.46360000
   0.74981131  0.50004135  0.53576724
   0.74975242  0.75027187  0.53571935
   0.00014815  0.49968209  0.53567130
   0.00008441  0.75021044  0.53571869
   0.58233719  0.83455801  0.60867502
   0.58339501  0.58930603  0.60913177
   0.83240959  0.83479085  0.60880688
   0.83331359  0.58394579  0.60884908
   0.48974174  0.42101706  0.71374310
   0.55517736  0.37822002  0.67830174
   0.65868478  0.36153333  0.68374806
Direct configuration=     5
   0.08333000  0.33333000  0.39081000
   0.08333000  0.08333000  0.39081000
   0.33333000  0.33333000  0.39081000
   0.33333000  0.08333000  0.39081000
   0.41667000  0.16667000  0.46360000
   0.41667000  0.41667000  0.46360000
   0.16667000  0.16667000  0.46360000
   0.16667000  0.41667000  0.46360000
   0.24956836  0.00047343  0.53562691
   0.25078198  0.25006818  0.53533782
   0.50001952  0.00149259  0.53546467
   0.50092479  0.25259676  0.53840261
   0.08327248  0.33287192  0.60869304
   0.08164979  0.08427277  0.60892732
   0.32785075  0.33372362  0.60936855
   0.33311947  0.08362232  0.60881380
   0.08333000  0.83333000  0.39081000
   0.08333000  0.58333000  0.39081000
   0.33333000  0.83333000  0.39081000
   0.33333000  0.58333000  0.39081000
   0.41667000  0.66667000  0.46360000
   0.41667000  0.91667000  0.46360000
   0.16667000  0.66667000  0.46360000
   0.16667000  0.91667000  0.46360000
   0.24973823  0.50013942  0.53584930
   0.25026611  0.75009135  0.53520889
   0.50052702  0.49827171  0.53827796
   0.49968389  0.74983459  0.53527507
   0.08218991  0.83525648  0.60876397
   0.08123063  0.58460995  0.60903462
   0.33233856  0.83549317  0.60887687
   0.32547840  0.59121849  0.60889771
   0.58333000  0.33333000  0.39081000
   0.58333000  0.08333000  0.39081000
   0.83333000  0.33333000  0.39081000
   0.83333000  0.08333000  0.39081000
   0.91667000  0.16667000  0.46360000
   0.91667000  0.41667000  0.46360000
   0.66667000  0.16667000  0.46360000
   0.66667000  0.41667000  0.46360000
   0.74961538  0.00066117  0.53562909
   0.74415989  0.25356788  0.53895020
   0.99779646  0.00195311  0.53550739
   0.99829446  0.25012635  0.53541697
   0.57756995  0.33612923  0.61725527
   0.58359694  0.08109978  0.60942403
   0.83591855  0.33445548  0.60960688
   0.83436444  0.08160859  0.60944800
   0.58333000  0.83333000  0.39081000
   0.58333000  0.58333000  0.39081000
   0.83333000  0.83333000  0.39081000
   0.83333000  0.58333000  0.39081000
   0.91667000  0.66667000  0.46360000
   0.91667000  0.91667000  0.46360000
   0.66667000  0.66667000  0.46360000
   0.66667000  0.91667000  0.46360000
   0.74978452  0.50002849  0.53577043
   0.74976980  0.75028706  0.53571836
   0.00014314  0.49968536  0.53567151
   0.00004335  0.75023533  0.53571893
   0.58232710  0.83458586  0.60868137
   0.58340348  0.58930860  0.60912587
   0.83241668  0.83476884  0.60880707
   0.83332577  0.58396224  0.60885059
   0.48858477  0.42130896  0.71385448
   0.55621559  0.37823884  0.67859779
   0.65893460  0.36125728  0.68351010
Direct configuration=     6
   0.08333000  0.33333000  0.39081000
   0.08333000  0.08333000  0.39081000
   0.33333000  0.33333000  0.39081000
   0.33333000  0.08333000  0.39081000
   0.41667000  0.16667000  0.46360000
   0.41667000  0.41667000  0.46360000
   0.16667000  0.16667000  0.46360000
   0.16667000  0.41667000  0.46360000
   0.24951789  0.00052169  0.53562924
   0.25067877  0.25005762  0.53532524
   0.50000134  0.00141887  0.53545884
   0.50082491  0.25246209  0.53822926
   0.08324621  0.33290827  0.60872542
   0.08166478  0.08431839  0.60892437
   0.32805081  0.33382597  0.60934492
   0.33306796  0.08364004  0.60882080
   0.08333000  0.83333000  0.39081000
   0.08333000  0.58333000  0.39081000
   0.33333000  0.83333000  0.39081000
   0.33333000  0.58333000  0.39081000
   0.41667000  0.66667000  0.46360000
   0.41667000  0.91667000  0.46360000
   0.16667000  0.66667000  0.46360000
   0.16667000  0.91667000  0.46360000
   0.24983735  0.50012816  0.53585898
   0.25022571  0.75013706  0.53523755
   0.50049477  0.49838807  0.53815047
   0.49961319  0.74992746  0.53525785
   0.08214289  0.83530613  0.60877692
   0.08113113  0.58466110  0.60903385
   0.33232206  0.83545289  0.60886410
   0.32582450  0.59083974  0.60888630
   0.58333000  0.33333000  0.39081000
   0.58333000  0.08333000  0.39081000
   0.83333000  0.33333000  0.39081000
   0.83333000  0.08333000  0.39081000
   0.91667000  0.16667000  0.46360000
   0.91667000  0.41667000  0.46360000
   0.66667000  0.16667000  0.46360000
   0.66667000  0.41667000  0.46360000
   0.74960673  0.00070678  0.53565428
   0.74423042  0.25351272  0.53884068
   0.99790329  0.00190755  0.53549679
   0.99846216  0.25009789  0.53540054
   0.57590633  0.33654414  0.61712993
   0.58354481  0.08119589  0.60942786
   0.83576745  0.33454628  0.60953999
   0.83434409  0.08163868  0.60940910
   0.58333000  0.83333000  0.39081000
   0.58333000  0.58333000  0.39081000
   0.83333000  0.83333000  0.39081000
   0.83333000  0.58333000  0.39081000
   0.91667000  0.66667000  0.46360000
   0.91667000  0.91667000  0.46360000
   0.66667000  0.66667000  0.46360000
   0.66667000  0.91667000  0.46360000
   0.74972823  0.49999653  0.53578873
   0.74981719  0.75029657  0.53571248
   0.00010108  0.49972452  0.53567156
  -0.00007015  0.75029476  0.53571701
   0.58228017  0.83470912  0.60871377
   0.58342460  0.58907964  0.60908670
   0.83245185  0.83462979  0.60882377
   0.83335757  0.58404979  0.60885875
   0.48869094  0.41899274  0.71128665
   0.55451250  0.38140243  0.68183570
   0.66226373  0.35980164  0.68302870
Direct configuration=     7
   0.08333000  0.33333000  0.39081000
   0.08333000  0.08333000  0.39081000
   0.33333000  0.33333000  0.39081000
   0.33333000  0.08333000  0.39081000
   0.41667000  0.16667000  0.46360000
   0.41667000  0.41667000  0.46360000
   0.16667000  0.16667000  0.46360000
   0.16667000  0.41667000  0.46360000
   0.24953754  0.00050289  0.53562833
   0.25071896  0.25006173  0.53533014
   0.50000842  0.00144758  0.53546111
   0.50086381  0.25251454  0.53829677
   0.08325644  0.33289411  0.60871281
   0.08165894  0.08430062  0.60892552
   0.32797290  0.33378611  0.60935413
   0.33308802  0.08363314  0.60881807
   0.08333000  0.83333000  0.39081000
   0.08333000  0.58333000  0.39081000
   0.33333000  0.83333000  0.39081000
   0.33333000  0.58333000  0.39081000
   0.41667000  0.66667000  0.46360000
   0.41667000  0.91667000  0.46360000
   0.16667000  0.66667000  0.46360000
   0.16667000  0.91667000  0.46360000
   0.24979875  0.50013255  0.53585521
   0.25024144  0.75011926  0.53522639
   0.50050733  0.49834276  0.53820012
   0.49964072  0.74989130  0.53526456
   0.08216120  0.83528680  0.60877187
   0.08116988  0.58464118  0.60903415
   0.33232848  0.83546858  0.60886907
   0.32568972  0.59098724  0.60889074
   0.58333000  0.33333000  0.39081000
   0.58333000  0.08333000  0.39081000
   0.83333000  0.33333000  0.39081000
   0.83333000  0.08333000  0.39081000
   0.91667000  0.16667000  0.46360000
   0.91667000  0.41667000  0.46360000
   0.66667000  0.16667000  0.46360000
   0.66667000  0.41667000  0.46360000
   0.74961010  0.00068902  0.53564447
   0.74420295  0.25353420  0.53888333
   0.99786169  0.00192529  0.53550092
   0.99839685  0.25010897  0.53540694
   0.57655420  0.33638256  0.61717874
   0.58356511  0.08115847  0.60942637
   0.83582630  0.33451092  0.60956604
   0.83435202  0.08162696  0.60942425
   0.58333000  0.83333000  0.39081000
   0.58333000  0.58333000  0.39081000
   0.83333000  0.83333000  0.39081000
   0.83333000  0.58333000  0.39081000
   0.91667000  0.66667000  0.46360000
   0.91667000  0.91667000  0.46360000
   0.66667000  0.66667000  0.46360000
   0.66667000  0.91667000  0.46360000
   0.74975015  0.50000898  0.53578160
   0.74979874  0.75029287  0.53571477
   0.00011746  0.49970927  0.53567154
  -0.00002595  0.75027162  0.53571776
   0.58229844  0.83466112  0.60870115
   0.58341637  0.58916881  0.60910195
   0.83243815  0.83468394  0.60881727
   0.83334518  0.58401569  0.60885557
   0.48864959  0.41989475  0.71228665
   0.55517574  0.38017042  0.68057474
   0.66096725  0.36036852  0.68321617
Direct configuration=     8
   0.08333000  0.33333000  0.39081000
   0.08333000  0.08333000  0.39081000
   0.33333000  0.33333000  0.39081000
   0.33333000  0.08333000  0.39081000
   0.41667000  0.16667000  0.46360000
   0.41667000  0.41667000  0.46360000
   0.16667000  0.16667000  0.46360000
   0.16667000  0.41667000  0.46360000
   0.24951766  0.00051987  0.53563068
   0.25066975  0.25006557  0.53532781
   0.49999486  0.00141217  0.53546077
   0.50075239  0.25236836  0.53816194
   0.08323758  0.33292153  0.60873702
   0.08164884  0.08435062  0.60892368
   0.32816774  0.33384355  0.60933818
   0.33304154  0.08365611  0.60882163
   0.08333000  0.83333000  0.39081000
   0.08333000  0.58333000  0.39081000
   0.33333000  0.83333000  0.39081000
   0.33333000  0.58333000  0.39081000
   0.41667000  0.66667000  0.46360000
   0.41667000  0.91667000  0.46360000
   0.16667000  0.66667000  0.46360000
   0.16667000  0.91667000  0.46360000
   0.24981334  0.50014853  0.53585573
   0.25021998  0.75012933  0.53523963
   0.50044184  0.49849921  0.53810681
   0.49961993  0.74994994  0.53526301
   0.08214189  0.83530708  0.60878274
   0.08111631  0.58467039  0.60903199
   0.33232759  0.83542813  0.60886014
   0.32601318  0.59064797  0.60888169
   0.58333000  0.33333000  0.39081000
   0.58333000  0.08333000  0.39081000
   0.83333000  0.33333000  0.39081000
   0.83333000  0.08333000  0.39081000
   0.91667000  0.16667000  0.46360000
   0.91667000  0.41667000  0.46360000
   0.66667000  0.16667000  0.46360000
   0.66667000  0.41667000  0.46360000
   0.74958857  0.00073114  0.53565836
   0.74438908  0.25342693  0.53879370
   0.99791426  0.00191472  0.53549531
   0.99847446  0.25009466  0.53539751
   0.57512192  0.33714599  0.61759096
   0.58350956  0.08131385  0.60943302
   0.83559123  0.33457529  0.60950171
   0.83423774  0.08177113  0.60940109
   0.58333000  0.83333000  0.39081000
   0.58333000  0.58333000  0.39081000
   0.83333000  0.83333000  0.39081000
   0.83333000  0.58333000  0.39081000
   0.91667000  0.66667000  0.46360000
   0.91667000  0.91667000  0.46360000
   0.66667000  0.66667000  0.46360000
   0.66667000  0.91667000  0.46360000
   0.74974808  0.50000451  0.53579373
   0.74980427  0.75027014  0.53570970
   0.00008873  0.49974283  0.53567166
  -0.00005164  0.75027907  0.53571632
   0.58226780  0.83473268  0.60872145
   0.58342333  0.58888199  0.60907486
   0.83246048  0.83458798  0.60883537
   0.83334635  0.58407586  0.60886139
   0.48615555  0.41990734  0.71184719
   0.55673927  0.38020829  0.68077691
   0.66349752  0.35943581  0.68311366
Direct configuration=     9
   0.08333000  0.33333000  0.39081000
   0.08333000  0.08333000  0.39081000
   0.33333000  0.33333000  0.39081000
   0.33333000  0.08333000  0.39081000
   0.41667000  0.16667000  0.46360000
   0.41667000  0.41667000  0.46360000
   0.16667000  0.16667000  0.46360000
   0.16667000  0.41667000  0.46360000
   0.24946363  0.00056603  0.53563706
   0.25053600  0.25007601  0.53532146
   0.49995799  0.00131591  0.53545983
   0.50044956  0.25197108  0.53779552
   0.08318631  0.33299604  0.60880282
   0.08162141  0.08448651  0.60891869
   0.32869727  0.33399965  0.60929483
   0.33291523  0.08371853  0.60883130
   0.08333000  0.83333000  0.39081000
   0.08333000  0.58333000  0.39081000
   0.33333000  0.83333000  0.39081000
   0.33333000  0.58333000  0.39081000
   0.41667000  0.66667000  0.46360000
   0.41667000  0.91667000  0.46360000
   0.16667000  0.66667000  0.46360000
   0.16667000  0.91667000  0.46360000
   0.24985298  0.50019198  0.53585715
   0.25016167  0.75015670  0.53527564
   0.50026386  0.49892443  0.53785320
   0.49956341  0.75010933  0.53525879
   0.08208938  0.83536220  0.60881226
   0.08097073  0.58474976  0.60902610
   0.33232516  0.83531818  0.60883587
   0.32689228  0.58972592  0.60885707
   0.58333000  0.33333000  0.39081000
   0.58333000  0.08333000  0.39081000
   0.83333000  0.33333000  0.39081000
   0.83333000  0.08333000  0.39081000
   0.91667000  0.16667000  0.46360000
   0.91667000  0.41667000  0.46360000
   0.66667000  0.16667000  0.46360000
   0.66667000  0.41667000  0.46360000
   0.74953009  0.00084562  0.53569609
   0.74489495  0.25313538  0.53855010
   0.99805715  0.00188598  0.53548006
   0.99868539  0.25005575  0.53537188
   0.57122925  0.33922087  0.61871131
   0.58335858  0.08173617  0.60945108
   0.83495237  0.33475025  0.60932689
   0.83392714  0.08216296  0.60933814
   0.58333000  0.83333000  0.39081000
   0.58333000  0.58333000  0.39081000
   0.83333000  0.83333000  0.39081000
   0.83333000  0.58333000  0.39081000
   0.91667000  0.66667000  0.46360000
   0.91667000  0.91667000  0.46360000
   0.66667000  0.66667000  0.46360000
   0.66667000  0.91667000  0.46360000
   0.74974245  0.49999235  0.53582667
   0.74981932  0.75020835  0.53569592
   0.00001065  0.49983402  0.53567198
  -0.00012146  0.75029933  0.53571242
   0.58218451  0.83492717  0.60877662
   0.58344222  0.58810247  0.60900123
   0.83252115  0.83432719  0.60888456
   0.83334953  0.58423938  0.60887718
   0.47937719  0.41994154  0.71065281
   0.56098866  0.38031121  0.68132637
   0.67037433  0.35690087  0.68283505
Direct configuration=    10
   0.08333000  0.33333000  0.39081000
   0.08333000  0.08333000  0.39081000
   0.33333000  0.33333000  0.39081000
   0.33333000  0.08333000  0.39081000
   0.41667000  0.16667000  0.46360000
   0.41667000  0.41667000  0.46360000
   0.16667000  0.16667000  0.46360000
   0.16667000  0.41667000  0.46360000
   0.24944646  0.00057296  0.53563861
   0.25041645  0.25013265  0.53533063
   0.49995112  0.00123889  0.53547243
   0.50039586  0.25183458  0.53763948
   0.08318897  0.33304623  0.60883372
   0.08152029  0.08461647  0.60891324
   0.32897079  0.33402992  0.60926036
   0.33282362  0.08378244  0.60883173
   0.08333000  0.83333000  0.39081000
   0.08333000  0.58333000  0.39081000
   0.33333000  0.83333000  0.39081000
   0.33333000  0.58333000  0.39081000
   0.41667000  0.66667000  0.46360000
   0.41667000  0.91667000  0.46360000
   0.16667000  0.66667000  0.46360000
   0.16667000  0.91667000  0.46360000
   0.24983499  0.50021199  0.53585275
   0.25008879  0.75019450  0.53529530
   0.50025782  0.49896941  0.53771926
   0.49957359  0.75017567  0.53527772
   0.08211181  0.83534087  0.60881974
   0.08089122  0.58479905  0.60901742
   0.33233030  0.83523209  0.60881635
   0.32732690  0.58928841  0.60884018
   0.58333000  0.33333000  0.39081000
   0.58333000  0.08333000  0.39081000
   0.83333000  0.33333000  0.39081000
   0.83333000  0.08333000  0.39081000
   0.91667000  0.16667000  0.46360000
   0.91667000  0.41667000  0.46360000
   0.66667000  0.16667000  0.46360000
   0.66667000  0.41667000  0.46360000
   0.74947820  0.00091539  0.53573365
   0.74509845  0.25298819  0.53840581
   0.99814770  0.00183270  0.53548490
   0.99881255  0.25006297  0.53536826
   0.56926158  0.34045311  0.61938737
   0.58322679  0.08216078  0.60945314
   0.83442163  0.33482847  0.60919813
   0.83357040  0.08258746  0.60928500
   0.58333000  0.83333000  0.39081000
   0.58333000  0.58333000  0.39081000
   0.83333000  0.83333000  0.39081000
   0.83333000  0.58333000  0.39081000
   0.91667000  0.66667000  0.46360000
   0.91667000  0.91667000  0.46360000
   0.66667000  0.66667000  0.46360000
   0.66667000  0.91667000  0.46360000
   0.74972136  0.50000243  0.53583706
   0.74980490  0.75020162  0.53569751
  -0.00001234  0.49986546  0.53567946
  -0.00012797  0.75031725  0.53571601
   0.58213576  0.83500100  0.60880256
   0.58341585  0.58756342  0.60895615
   0.83250841  0.83424771  0.60891067
   0.83328723  0.58432691  0.60888848
   0.47880681  0.41863046  0.70913282
   0.56170184  0.38075876  0.68192393
   0.67314400  0.35596981  0.68314371
Direct configuration=    11
   0.08333000  0.33333000  0.39081000
   0.08333000  0.08333000  0.39081000
   0.33333000  0.33333000  0.39081000
   0.33333000  0.08333000  0.39081000
   0.41667000  0.16667000  0.46360000
   0.41667000  0.41667000  0.46360000
   0.16667000  0.16667000  0.46360000
   0.16667000  0.41667000  0.46360000
   0.24945231  0.00057060  0.53563808
   0.25045721  0.25011334  0.53532750
   0.49995347  0.00126515  0.53546813
   0.50041417  0.25188112  0.53769268
   0.08318806  0.33302912  0.60882319
   0.08155476  0.08457216  0.60891510
   0.32887754  0.33401960  0.60927211
   0.33285485  0.08376065  0.60883158
   0.08333000  0.83333000  0.39081000
   0.08333000  0.58333000  0.39081000
   0.33333000  0.83333000  0.39081000
   0.33333000  0.58333000  0.39081000
   0.41667000  0.66667000  0.46360000
   0.41667000  0.91667000  0.46360000
   0.16667000  0.66667000  0.46360000
   0.16667000  0.91667000  0.46360000
   0.24984113  0.50020517  0.53585425
   0.25011364  0.75018161  0.53528859
   0.50025988  0.49895407  0.53776492
   0.49957012  0.75015306  0.53527127
   0.08210416  0.83534814  0.60881719
   0.08091833  0.58478225  0.60902038
   0.33232855  0.83526144  0.60882300
   0.32717873  0.58943757  0.60884594
   0.58333000  0.33333000  0.39081000
   0.58333000  0.08333000  0.39081000
   0.83333000  0.33333000  0.39081000
   0.83333000  0.08333000  0.39081000
   0.91667000  0.16667000  0.46360000
   0.91667000  0.41667000  0.46360000
   0.66667000  0.16667000  0.46360000
   0.66667000  0.41667000  0.46360000
   0.74949589  0.00089161  0.53572085
   0.74502907  0.25303837  0.53845500
   0.99811683  0.00185086  0.53548325
   0.99876920  0.25006051  0.53536950
   0.56993240  0.34003301  0.61915689
   0.58327172  0.08201602  0.60945244
   0.83460257  0.33480180  0.60924203
   0.83369202  0.08244274  0.60930312
   0.58333000  0.83333000  0.39081000
   0.58333000  0.58333000  0.39081000
   0.83333000  0.83333000  0.39081000
   0.83333000  0.58333000  0.39081000
   0.91667000  0.66667000  0.46360000
   0.91667000  0.91667000  0.46360000
   0.66667000  0.66667000  0.46360000
   0.66667000  0.91667000  0.46360000
   0.74972855  0.49999899  0.53583352
   0.74980982  0.75020391  0.53569697
  -0.00000450  0.49985474  0.53567691
  -0.00012575  0.75031114  0.53571479
   0.58215238  0.83497583  0.60879372
   0.58342484  0.58774719  0.60897152
   0.83251275  0.83427481  0.60890177
   0.83330847  0.58429707  0.60888463
   0.47900126  0.41907743  0.70965101
   0.56145871  0.38060618  0.68172021
   0.67219977  0.35628722  0.68303848
Direct configuration=    12
   0.08333000  0.33333000  0.39081000
   0.08333000  0.08333000  0.39081000
   0.33333000  0.33333000  0.39081000
   0.33333000  0.08333000  0.39081000
   0.41667000  0.16667000  0.46360000
   0.41667000  0.41667000  0.46360000
   0.16667000  0.16667000  0.46360000
   0.16667000  0.41667000  0.46360000
   0.24945016  0.00056275  0.53563824
   0.25032044  0.25019242  0.53534570
   0.49995713  0.00117284  0.53549209
   0.50044156  0.25181045  0.53756745
   0.08319956  0.33309222  0.60885119
   0.08138653  0.08474512  0.60890595
   0.32913030  0.33401052  0.60923022
   0.33274483  0.08384699  0.60882787
   0.08333000  0.83333000  0.39081000
   0.08333000  0.58333000  0.39081000
   0.33333000  0.83333000  0.39081000
   0.33333000  0.58333000  0.39081000
   0.41667000  0.66667000  0.46360000
   0.41667000  0.91667000  0.46360000
   0.16667000  0.66667000  0.46360000
   0.16667000  0.91667000  0.46360000
   0.24979841  0.50022442  0.53584578
   0.25001987  0.75023120  0.53530759
   0.50032076  0.49885528  0.53763350
   0.49960156  0.75020524  0.53530399
   0.08216027  0.83529147  0.60881891
   0.08083450  0.58483944  0.60900738
   0.33234036  0.83515555  0.60879729
   0.32755572  0.58907392  0.60882398
   0.58333000  0.33333000  0.39081000
   0.58333000  0.08333000  0.39081000
   0.83333000  0.33333000  0.39081000
   0.83333000  0.08333000  0.39081000
   0.91667000  0.16667000  0.46360000
   0.91667000  0.41667000  0.46360000