
     Program PWSCF v.6.7MaX starts on 12Jun2023 at 18:40:34 

     This program is part of the open-source Quantum ESPRESSO suite
     for quantum simulation of materials; please cite
         "P. Giannozzi et al., J. Phys.:Condens. Matter 21 395502 (2009);
         "P. Giannozzi et al., J. Phys.:Condens. Matter 29 465901 (2017);
          URL http://www.quantum-espresso.org", 
     in publications or presentations arising from this work. More details at
     http://www.quantum-espresso.org/quote

     Parallel version (MPI), running on     6 processors

     MPI processes distributed on     1 nodes
     R & G space division:  proc/nbgrp/npool/nimage =       6
     Waiting for input...
     Reading input from standard input

     Current dimensions of program PWSCF are:
     Max number of different atomic species (ntypx) = 10
     Max number of k-points (npk) =  40000
     Max angular momentum in pseudopotentials (lmaxx) =  3
     file Al.pbe-n-kjpaw_psl.1.0.0.UPF: wavefunction(s)  3S 3P renormalized

     Subspace diagonalization in iterative solution of the eigenvalue problem:
     one sub-group per band group will be used
     scalapack distributed-memory algorithm (size of sub-group:  2*  2 procs)

     Found symmetry operation: I + (  0.5000  0.0000  0.0000)
     This is a supercell, fractional translations are disabled
     Message from routine setup:
     using ibrav=0 with symmetry is DISCOURAGED, use correct ibrav instead

     Parallelization info
     --------------------
     sticks:   dense  smooth     PW     G-vecs:    dense   smooth      PW
     Min         324     159     46                34172    12043    1847
     Max         325     160     48                34183    12062    1852
     Sum        1945     955    283               205059    72287   11095



     bravais-lattice index     =            0
     lattice parameter (alat)  =      10.8235  a.u.
     unit-cell volume          =    3262.0775 (a.u.)^3
     number of atoms/cell      =           16
     number of atomic types    =            1
     number of electrons       =        48.00
     number of Kohn-Sham states=           29
     kinetic-energy cutoff     =      30.0000  Ry
     charge density cutoff     =     240.0000  Ry
     scf convergence threshold =      1.0E-04
     mixing beta               =       0.7000
     number of iterations used =            8  plain     mixing
     energy convergence thresh.=      1.0E-04
     force convergence thresh. =      1.0E-01
     Exchange-correlation= SLA  PW   PBX  PBC
                           (   1   4   3   4   0   0   0)
     nstep                     =           50


     celldm(1)=  10.823529  celldm(2)=   0.000000  celldm(3)=   0.000000
     celldm(4)=   0.000000  celldm(5)=   0.000000  celldm(6)=   0.000000

     crystal axes: (cart. coord. in units of alat)
               a(1) = (   1.000000   0.000000   0.000000 )  
               a(2) = (   0.500000   0.866025   0.000000 )  
               a(3) = (   0.000000   0.000000   2.970688 )  

     reciprocal axes: (cart. coord. in units 2 pi/alat)
               b(1) = (  1.000000 -0.577350  0.000000 )  
               b(2) = (  0.000000  1.154701  0.000000 )  
               b(3) = (  0.000000  0.000000  0.336622 )  


     PseudoPot. # 1 for Al read from file:
     /home/mini21k/QE/Potential/Al.pbe-n-kjpaw_psl.1.0.0.UPF
     MD5 check sum: cfc449ca30b5f3223ec38ddd88ac046d
     Pseudo is Projector augmented-wave + core cor, Zval =  3.0
     Generated using "atomic" code by A. Dal Corso  v.5.1
     Shape of augmentation charge: PSQ
     Using radial grid of 1135 points,  6 beta functions with: 
                l(1) =   0
                l(2) =   0
                l(3) =   1
                l(4) =   1
                l(5) =   2
                l(6) =   2
     Q(r) pseudized with 0 coefficients 


     atomic species   valence    mass     pseudopotential
        Al             3.00    26.98154     Al( 1.00)

      6 Sym. Ops. (no inversion) found



   Cartesian axes

     site n.     atom                  positions (alat units)
         1           Al  tau(   1) = (   0.0000000   0.0000000   0.0000000  )
         2           Al  tau(   2) = (   0.4999999   0.0000000   0.0000000  )
         3           Al  tau(   3) = (   0.2500000   0.4330126   0.0000000  )
         4           Al  tau(   4) = (   0.7500001   0.4330126   0.0000000  )
         5           Al  tau(   5) = (   0.2500000   0.1443376   0.4082484  )
         6           Al  tau(   6) = (   0.7500001   0.1443376   0.4082484  )
         7           Al  tau(   7) = (   0.4999999   0.5773502   0.4082484  )
         8           Al  tau(   8) = (   1.0000000   0.5773502   0.4082484  )
         9           Al  tau(   9) = (   0.0000000   0.2886752   0.8164965  )
        10           Al  tau(  10) = (   0.4999999   0.2886752   0.8164965  )
        11           Al  tau(  11) = (   0.2500000   0.7216878   0.8164965  )
        12           Al  tau(  12) = (   0.7500001   0.7216878   0.8164965  )
        13           Al  tau(  13) = (   0.0000000   0.0000000   1.2247449  )
        14           Al  tau(  14) = (   0.4999999   0.0000000   1.2247449  )
        15           Al  tau(  15) = (   0.2500000   0.4330126   1.2247449  )
        16           Al  tau(  16) = (   0.7500001   0.4330126   1.2247449  )

     number of k points=     3  Gaussian smearing, width (Ry)=  0.0030
                       cart. coord. in units 2pi/alat
        k(    1) = (   0.0000000   0.0000000   0.0000000), wk =   0.2222222
        k(    2) = (   0.0000000   0.3849002   0.0000000), wk =   1.3333333
        k(    3) = (   0.3333333  -0.5773503   0.0000000), wk =   0.4444444

     Dense  grid:   205059 G-vectors     FFT dimensions: (  54,  54, 160)

     Smooth grid:    72287 G-vectors     FFT dimensions: (  40,  40, 120)

     Estimated max dynamical RAM per process >     151.30 MB

     Estimated total dynamical RAM >     907.82 MB

     Initial potential from superposition of free atoms

     starting charge   47.96336, renormalised to   48.00000
     Starting wfcs are   64 randomized atomic wfcs
     Checking if some PAW data can be deallocated... 

     total cpu time spent up to now is        2.0 secs

     Self-consistent Calculation

     iteration #  1     ecut=    30.00 Ry     beta= 0.70
     Davidson diagonalization with overlap
     ethr =  1.00E-02,  avg # of iterations =  3.7

     total cpu time spent up to now is        4.6 secs

     total energy              =    -631.36714809 Ry
     estimated scf accuracy    <       0.67729397 Ry

     iteration #  2     ecut=    30.00 Ry     beta= 0.70
     Davidson diagonalization with overlap
     ethr =  1.41E-03,  avg # of iterations =  6.3

     total cpu time spent up to now is        7.7 secs

     total energy              =    -629.45170777 Ry
     estimated scf accuracy    <      28.23500404 Ry

     iteration #  3     ecut=    30.00 Ry     beta= 0.70
     Davidson diagonalization with overlap
     ethr =  1.41E-03,  avg # of iterations =  5.7

     total cpu time spent up to now is       10.6 secs

     total energy              =    -631.82061752 Ry
     estimated scf accuracy    <       0.14134111 Ry

     iteration #  4     ecut=    30.00 Ry     beta= 0.70
     Davidson diagonalization with overlap
     ethr =  2.94E-04,  avg # of iterations =  4.0

     total cpu time spent up to now is       13.1 secs

     total energy              =    -631.79964218 Ry
     estimated scf accuracy    <       0.74852032 Ry

     iteration #  5     ecut=    30.00 Ry     beta= 0.70
     Davidson diagonalization with overlap
     ethr =  2.94E-04,  avg # of iterations =  2.7

     total cpu time spent up to now is       15.3 secs

     total energy              =    -631.83406102 Ry
     estimated scf accuracy    <       0.11671244 Ry

     iteration #  6     ecut=    30.00 Ry     beta= 0.70
     Davidson diagonalization with overlap
     ethr =  2.43E-04,  avg # of iterations =  1.0

     total cpu time spent up to now is       17.4 secs

     total energy              =    -631.83815236 Ry
     estimated scf accuracy    <       0.01098740 Ry

     iteration #  7     ecut=    30.00 Ry     beta= 0.70
     Davidson diagonalization with overlap
     ethr =  2.29E-05,  avg # of iterations =  4.7

     total cpu time spent up to now is       19.9 secs

     total energy              =    -631.84101670 Ry
     estimated scf accuracy    <       0.00062318 Ry

     iteration #  8     ecut=    30.00 Ry     beta= 0.70
     Davidson diagonalization with overlap
     c_bands:  1 eigenvalues not converged
     ethr =  1.30E-06,  avg # of iterations = 12.3

     total cpu time spent up to now is       22.8 secs

     total energy              =    -631.84123565 Ry
     estimated scf accuracy    <       0.00114254 Ry

     iteration #  9     ecut=    30.00 Ry     beta= 0.70
     Davidson diagonalization with overlap
     ethr =  1.30E-06,  avg # of iterations =  3.3

     total cpu time spent up to now is       24.8 secs

     total energy              =    -631.84114862 Ry
     estimated scf accuracy    <       0.00054774 Ry

     iteration # 10     ecut=    30.00 Ry     beta= 0.70
     Davidson diagonalization with overlap
     ethr =  1.14E-06,  avg # of iterations =  8.0

     total cpu time spent up to now is       27.3 secs

     total energy              =    -631.84134261 Ry
     estimated scf accuracy    <       0.00056132 Ry

     iteration # 11     ecut=    30.00 Ry     beta= 0.70
     Davidson diagonalization with overlap
     ethr =  1.14E-06,  avg # of iterations =  1.0

     total cpu time spent up to now is       29.3 secs

     total energy              =    -631.84128518 Ry
     estimated scf accuracy    <       0.00049300 Ry

     iteration # 12     ecut=    30.00 Ry     beta= 0.70
     Davidson diagonalization with overlap
     ethr =  1.03E-06,  avg # of iterations =  1.0

     total cpu time spent up to now is       31.3 secs

     total energy              =    -631.84119719 Ry
     estimated scf accuracy    <       0.00029187 Ry

     iteration # 13     ecut=    30.00 Ry     beta= 0.70
     Davidson diagonalization with overlap
     ethr =  6.08E-07,  avg # of iterations =  2.0

     total cpu time spent up to now is       33.5 secs

     End of self-consistent calculation

          k = 0.0000 0.0000 0.0000 (  9093 PWs)   bands (ev):

    -8.2614  -7.2272  -5.6111  -3.3484  -2.4072  -2.4023  -2.4023  -2.3625
    -2.3625  -2.3531  -1.4231  -1.4231  -1.4146  -1.3931  -1.3892  -1.3892
    -0.8755  -0.0533  -0.0533  -0.0455   0.5311   0.5346   0.5346   2.0195
     2.4195   2.4245   2.4245   2.6034   2.6122

          k = 0.0000 0.3849 0.0000 (  9044 PWs)   bands (ev):

    -7.5953  -6.5648  -5.6159  -4.9538  -4.5970  -3.6652  -3.6637  -3.0047
    -2.6930  -2.6611  -2.6596  -1.1063  -1.1039  -0.7741  -0.2493   0.1051
     0.1069   0.8806   0.8809   1.5190   1.5207   1.5248   2.1590   2.6372
     2.7528   2.7536   3.1029   3.4452   3.4457

          k = 0.3333-0.5774 0.0000 (  9066 PWs)   bands (ev):

    -6.2774  -6.2706  -6.2699  -5.2539  -5.2477  -5.2472  -3.6543  -3.6484
    -3.6479  -1.4055  -1.3988  -1.3983  -0.5370  -0.4539  -0.4536   0.4107
     0.4108   0.5332   0.9882   0.9941   0.9946   1.8525   1.8527   2.8558
     3.7419   3.7468   3.7472   4.3794   4.6226

     the Fermi energy is     2.6404 ev

!    total energy              =    -631.84119961 Ry

     total all-electron energy =     -7770.125705 Ry
     estimated scf accuracy    <       0.00003477 Ry
     smearing contrib. (-TS)   =      -0.00132217 Ry
     internal energy E=F+TS    =    -631.83987744 Ry

     The total energy is F=E-TS. E is the sum of the following terms:
     one-electron contribution =    -265.49892659 Ry
     hartree contribution      =     148.52965766 Ry
     xc contribution           =     -40.73048610 Ry
     ewald contribution        =      80.71936911 Ry
     one-center paw contrib.   =    -554.85949152 Ry

     convergence has been achieved in  13 iterations

     Forces acting on atoms (cartesian axes, Ry/au):

     atom    1 type  1   force =     0.00000000    0.00000000   -0.00534424
     atom    2 type  1   force =     0.00000000   -0.00045416   -0.00588755
     atom    3 type  1   force =    -0.00039331    0.00022708   -0.00588755
     atom    4 type  1   force =     0.00039331    0.00022708   -0.00588755
     atom    5 type  1   force =     0.00154307    0.00089089   -0.00514030
     atom    6 type  1   force =    -0.00154307    0.00089089   -0.00514030
     atom    7 type  1   force =     0.00000000   -0.00178178   -0.00514030
     atom    8 type  1   force =     0.00000000    0.00000000   -0.00469840
     atom    9 type  1   force =     0.00000000    0.00178604    0.00515529
     atom   10 type  1   force =     0.00000000    0.00000000    0.00478159
     atom   11 type  1   force =    -0.00154675   -0.00089302    0.00515529
     atom   12 type  1   force =     0.00154675   -0.00089302    0.00515529
     atom   13 type  1   force =     0.00000000    0.00000000    0.00528771
     atom   14 type  1   force =     0.00000000    0.00037329    0.00586368
     atom   15 type  1   force =     0.00032328   -0.00018665    0.00586368
     atom   16 type  1   force =    -0.00032328   -0.00018665    0.00586368

     Total force =     0.018830     Total SCF correction =     0.005246
     SCF correction compared to forces is large: reduce conv_thr to get better values

     BFGS Geometry Optimization
     Energy error            =      0.0E+00
     Gradient error          =      5.9E-03

     bfgs converged in   1 scf cycles and   0 bfgs steps
     (criteria: energy <  1.0E-04 Ry, force <  1.0E-01 Ry/Bohr)

     End of BFGS Geometry Optimization

     Final energy   =    -631.8411996100 Ry
Begin final coordinates

ATOMIC_POSITIONS (angstrom)
Al            0.0000000000        0.0000000000        0.0000000000    0   0   0
Al            2.8637820000        0.0000000000        0.0000000000    0   0   0
Al            1.4318910000        2.4801080000        0.0000000000    0   0   0
Al            4.2956740000        2.4801080000        0.0000000000    0   0   0
Al            1.4318910000        0.8267030000        2.3382690000
Al            4.2956740000        0.8267030000        2.3382690000
Al            2.8637820000        3.3068110000        2.3382690000
Al            5.7275650000        3.3068110000        2.3382690000
Al            0.0000000000        1.6534060000        4.6765370000
Al            2.8637820000        1.6534060000        4.6765370000
Al            1.4318910000        4.1335140000        4.6765370000
Al            4.2956740000        4.1335140000        4.6765370000
Al            0.0000000000        0.0000000000        7.0148060000
Al            2.8637820000        0.0000000000        7.0148060000
Al            1.4318910000        2.4801080000        7.0148060000
Al            4.2956740000        2.4801080000        7.0148060000
End final coordinates



     Writing output data file ./output/pwscf.save/

     init_run     :      1.80s CPU      1.88s WALL (       1 calls)
     electrons    :     30.54s CPU     31.57s WALL (       1 calls)
     forces       :      1.46s CPU      1.50s WALL (       1 calls)

     Called by init_run:
     wfcinit      :      0.75s CPU      0.77s WALL (       1 calls)
     potinit      :      0.48s CPU      0.49s WALL (       1 calls)
     hinit0       :      0.22s CPU      0.22s WALL (       1 calls)

     Called by electrons:
     c_bands      :     13.99s CPU     14.11s WALL (      13 calls)
     sum_band     :      6.69s CPU      7.11s WALL (      13 calls)
     v_of_rho     :      0.74s CPU      0.76s WALL (      14 calls)
     newd         :      4.44s CPU      4.96s WALL (      14 calls)
     PAW_pot      :      5.12s CPU      5.13s WALL (      14 calls)
     mix_rho      :      0.14s CPU      0.15s WALL (      13 calls)

     Called by c_bands:
     init_us_2    :      0.27s CPU      0.29s WALL (      84 calls)
     cegterg      :     13.15s CPU     13.25s WALL (      39 calls)

     Called by *egterg:
     cdiaghg      :      0.26s CPU      0.26s WALL (     206 calls)
     h_psi        :      8.08s CPU      8.18s WALL (     209 calls)
     s_psi        :      2.61s CPU      2.61s WALL (     209 calls)
     g_psi        :      0.02s CPU      0.02s WALL (     167 calls)

     Called by h_psi:
     h_psi:calbec :      3.19s CPU      3.22s WALL (     209 calls)
     vloc_psi     :      2.12s CPU      2.18s WALL (     209 calls)
     add_vuspsi   :      2.76s CPU      2.76s WALL (     209 calls)

     General routines
     calbec       :      4.58s CPU      4.65s WALL (     260 calls)
     fft          :      0.49s CPU      0.51s WALL (     191 calls)
     ffts         :      0.02s CPU      0.02s WALL (      27 calls)
     fftw         :      2.18s CPU      2.24s WALL (    7663 calls)
     interpolate  :      0.05s CPU      0.05s WALL (      14 calls)

     Parallel routines
     fft_scatt_xy :      0.33s CPU      0.33s WALL (    7881 calls)
     fft_scatt_yz :      1.13s CPU      1.16s WALL (    7881 calls)

     PWSCF        :     33.90s CPU     35.07s WALL


   This run was terminated on:  18:41: 9  12Jun2023            

=------------------------------------------------------------------------------=
   JOB DONE.
=------------------------------------------------------------------------------=
