
     Program PWSCF v.6.7MaX starts on 12Jun2023 at 19:37:28 

     This program is part of the open-source Quantum ESPRESSO suite
     for quantum simulation of materials; please cite
         "P. Giannozzi et al., J. Phys.:Condens. Matter 21 395502 (2009);
         "P. Giannozzi et al., J. Phys.:Condens. Matter 29 465901 (2017);
          URL http://www.quantum-espresso.org", 
     in publications or presentations arising from this work. More details at
     http://www.quantum-espresso.org/quote

     Parallel version (MPI), running on     6 processors

     MPI processes distributed on     1 nodes
     R & G space division:  proc/nbgrp/npool/nimage =       6
     Waiting for input...
     Reading input from standard input

     Current dimensions of program PWSCF are:
     Max number of different atomic species (ntypx) = 10
     Max number of k-points (npk) =  40000
     Max angular momentum in pseudopotentials (lmaxx) =  3
     file Al.pbe-n-kjpaw_psl.1.0.0.UPF: wavefunction(s)  3S 3P renormalized
     file O.pbe-n-kjpaw_psl.0.1.UPF: wavefunction(s)  2P renormalized
     file C.pbe-n-kjpaw_psl.1.0.0.UPF: wavefunction(s)  2S 2P renormalized

     Subspace diagonalization in iterative solution of the eigenvalue problem:
     one sub-group per band group will be used
     scalapack distributed-memory algorithm (size of sub-group:  2*  2 procs)

     Message from routine setup:
     using ibrav=0 with symmetry is DISCOURAGED, use correct ibrav instead

     Parallelization info
     --------------------
     sticks:   dense  smooth     PW     G-vecs:    dense   smooth      PW
     Min          82      40     14                 7371     2594     486
     Max          84      41     15                 7378     2613     497
     Sum         499     241     85                44243    15601    2947



     bravais-lattice index     =            0
     lattice parameter (alat)  =       5.4118  a.u.
     unit-cell volume          =     703.4462 (a.u.)^3
     number of atoms/cell      =            5
     number of atomic types    =            3
     number of electrons       =        19.00
     number of Kohn-Sham states=           14
     kinetic-energy cutoff     =      30.0000  Ry
     charge density cutoff     =     240.0000  Ry
     scf convergence threshold =      1.0E-04
     mixing beta               =       0.7000
     number of iterations used =            8  plain     mixing
     energy convergence thresh.=      1.0E-04
     force convergence thresh. =      1.0E-01
     Exchange-correlation= SLA  PW   PBX  PBC
                           (   1   4   3   4   0   0   0)
     nstep                     =           50


     celldm(1)=   5.411765  celldm(2)=   0.000000  celldm(3)=   0.000000
     celldm(4)=   0.000000  celldm(5)=   0.000000  celldm(6)=   0.000000

     crystal axes: (cart. coord. in units of alat)
               a(1) = (   1.000000   0.000000   0.000000 )  
               a(2) = (   0.500000   0.866025   0.000000 )  
               a(3) = (   0.000000   0.000000   5.124879 )  

     reciprocal axes: (cart. coord. in units 2 pi/alat)
               b(1) = (  1.000000 -0.577350  0.000000 )  
               b(2) = (  0.000000  1.154701  0.000000 )  
               b(3) = (  0.000000  0.000000  0.195127 )  


     PseudoPot. # 1 for Al read from file:
     /home/mini21k/QE/Potential/Al.pbe-n-kjpaw_psl.1.0.0.UPF
     MD5 check sum: cfc449ca30b5f3223ec38ddd88ac046d
     Pseudo is Projector augmented-wave + core cor, Zval =  3.0
     Generated using "atomic" code by A. Dal Corso  v.5.1
     Shape of augmentation charge: PSQ
     Using radial grid of 1135 points,  6 beta functions with: 
                l(1) =   0
                l(2) =   0
                l(3) =   1
                l(4) =   1
                l(5) =   2
                l(6) =   2
     Q(r) pseudized with 0 coefficients 


     PseudoPot. # 2 for O  read from file:
     /home/mini21k/QE/Potential/O.pbe-n-kjpaw_psl.0.1.UPF
     MD5 check sum: 0234752ac141de4415c5fc33072bef88
     Pseudo is Projector augmented-wave + core cor, Zval =  6.0
     Generated using "atomic" code by A. Dal Corso  v.5.0.99 svn rev. 10869
     Shape of augmentation charge: BESSEL
     Using radial grid of 1095 points,  4 beta functions with: 
                l(1) =   0
                l(2) =   0
                l(3) =   1
                l(4) =   1
     Q(r) pseudized with 0 coefficients 


     PseudoPot. # 3 for C  read from file:
     /home/mini21k/QE/Potential/C.pbe-n-kjpaw_psl.1.0.0.UPF
     MD5 check sum: 5d2aebdfa2cae82b50a7e79e9516da0f
     Pseudo is Projector augmented-wave + core cor, Zval =  4.0
     Generated using "atomic" code by A. Dal Corso  v.5.1
     Shape of augmentation charge: PSQ
     Using radial grid of 1073 points,  4 beta functions with: 
                l(1) =   0
                l(2) =   0
                l(3) =   1
                l(4) =   1
     Q(r) pseudized with 0 coefficients 


     atomic species   valence    mass     pseudopotential
        Al             3.00    26.98154     Al( 1.00)
        O              6.00    15.99900     O ( 1.00)
        C              4.00    12.01100     C ( 1.00)

      6 Sym. Ops. (no inversion) found



   Cartesian axes

     site n.     atom                  positions (alat units)
         1           Al  tau(   1) = (   0.5000000   0.2886751   0.0000000  )
         2           Al  tau(   2) = (   0.0000000   0.5773503   0.8164966  )
         3           Al  tau(   3) = (   0.0000000   0.0000000   1.6329932  )
         4           O   tau(   4) = (   0.0000000   0.0000000   2.3472453  )
         5           C   tau(   5) = (   0.0000000   0.0000000   2.7523040  )

     number of k points=     3  Gaussian smearing, width (Ry)=  0.0030
                       cart. coord. in units 2pi/alat
        k(    1) = (   0.0000000   0.0000000   0.0000000), wk =   0.2222222
        k(    2) = (   0.0000000   0.3849002   0.0000000), wk =   1.3333333
        k(    3) = (   0.3333333  -0.5773503   0.0000000), wk =   0.4444444

     Dense  grid:    44243 G-vectors     FFT dimensions: (  27,  27, 144)

     Smooth grid:    15601 G-vectors     FFT dimensions: (  20,  20, 100)

     Estimated max dynamical RAM per process >      30.84 MB

     Estimated total dynamical RAM >     185.02 MB

     Check: negative core charge=   -0.000008

     Initial potential from superposition of free atoms

     starting charge   18.99309, renormalised to   19.00000
     Starting wfcs are   20 randomized atomic wfcs
     Checking if some PAW data can be deallocated... 

     total cpu time spent up to now is        0.7 secs

     Self-consistent Calculation

     iteration #  1     ecut=    30.00 Ry     beta= 0.70
     Davidson diagonalization with overlap
     ethr =  1.00E-02,  avg # of iterations =  5.3

     total cpu time spent up to now is        0.9 secs

     total energy              =    -177.80900654 Ry
     estimated scf accuracy    <       0.74545532 Ry

     iteration #  2     ecut=    30.00 Ry     beta= 0.70
     Davidson diagonalization with overlap
     ethr =  3.92E-03,  avg # of iterations =  6.7

     total cpu time spent up to now is        1.2 secs

     total energy              =    -175.17242239 Ry
     estimated scf accuracy    <      65.16037412 Ry

     iteration #  3     ecut=    30.00 Ry     beta= 0.70
     Davidson diagonalization with overlap
     ethr =  3.92E-03,  avg # of iterations =  5.0

     total cpu time spent up to now is        1.4 secs

     total energy              =    -177.94989941 Ry
     estimated scf accuracy    <       2.56153363 Ry

     iteration #  4     ecut=    30.00 Ry     beta= 0.70
     Davidson diagonalization with overlap
     ethr =  3.92E-03,  avg # of iterations =  3.0

     total cpu time spent up to now is        1.7 secs

     total energy              =    -178.11767456 Ry
     estimated scf accuracy    <       2.61270940 Ry

     iteration #  5     ecut=    30.00 Ry     beta= 0.70
     Davidson diagonalization with overlap
     ethr =  3.92E-03,  avg # of iterations =  1.7

     total cpu time spent up to now is        1.9 secs

     total energy              =    -178.28287321 Ry
     estimated scf accuracy    <       0.19557490 Ry

     iteration #  6     ecut=    30.00 Ry     beta= 0.70
     Davidson diagonalization with overlap
     ethr =  1.03E-03,  avg # of iterations =  1.3

     total cpu time spent up to now is        2.1 secs

     total energy              =    -178.29728251 Ry
     estimated scf accuracy    <       0.03677299 Ry

     iteration #  7     ecut=    30.00 Ry     beta= 0.70
     Davidson diagonalization with overlap
     ethr =  1.94E-04,  avg # of iterations =  2.3

     total cpu time spent up to now is        2.3 secs

     total energy              =    -178.30090802 Ry
     estimated scf accuracy    <       0.00451726 Ry

     iteration #  8     ecut=    30.00 Ry     beta= 0.70
     Davidson diagonalization with overlap
     ethr =  2.38E-05,  avg # of iterations =  8.7

     negative rho (up, down):  6.984E-08 0.000E+00

     total cpu time spent up to now is        2.6 secs

     total energy              =    -178.30118020 Ry
     estimated scf accuracy    <       0.00103755 Ry

     iteration #  9     ecut=    30.00 Ry     beta= 0.70
     Davidson diagonalization with overlap
     ethr =  5.46E-06,  avg # of iterations =  3.7

     total cpu time spent up to now is        2.8 secs

     total energy              =    -178.30127744 Ry
     estimated scf accuracy    <       0.00027522 Ry

     iteration # 10     ecut=    30.00 Ry     beta= 0.70
     Davidson diagonalization with overlap
     ethr =  1.45E-06,  avg # of iterations =  1.7

     negative rho (up, down):  1.475E-07 0.000E+00

     total cpu time spent up to now is        3.0 secs

     End of self-consistent calculation

          k = 0.0000 0.0000 0.0000 (  1969 PWs)   bands (ev):

   -22.5961  -9.5506  -6.7677  -5.0011  -3.5551  -3.5551  -3.4133  -2.0095
     1.3276   5.1869   7.1802   7.1802   7.3639   9.8570

          k = 0.0000 0.3849 0.0000 (  1946 PWs)   bands (ev):

   -22.2265  -8.7987  -5.7887  -4.1541  -3.9510  -2.4396  -1.6265   0.2671
     3.0634   3.7483   4.4455   5.2282   6.4887   7.4278

          k = 0.3333-0.5774 0.0000 (  1953 PWs)   bands (ev):

   -22.0327  -8.4036  -5.4808  -5.4803  -0.6268   0.8707   0.9150   0.9457
     1.9019   2.5466   2.8567   3.9510   4.0979   5.3017

     the Fermi energy is     3.7084 ev

!    total energy              =    -178.30125449 Ry

     total all-electron energy =     -1683.340589 Ry
     estimated scf accuracy    <       0.00006042 Ry
     smearing contrib. (-TS)   =      -0.00043363 Ry
     internal energy E=F+TS    =    -178.30082086 Ry

     The total energy is F=E-TS. E is the sum of the following terms:
     one-electron contribution =    -133.60532329 Ry
     hartree contribution      =      74.08909476 Ry
     xc contribution           =     -19.43287026 Ry
     ewald contribution        =      20.39202154 Ry
     one-center paw contrib.   =    -119.74374362 Ry

     convergence has been achieved in  10 iterations

     negative rho (up, down):  1.475E-07 0.000E+00

     Forces acting on atoms (cartesian axes, Ry/au):

     atom    1 type  1   force =     0.00000000    0.00000000    0.01062054
     atom    2 type  1   force =     0.00000000    0.00000000    0.00475697
     atom    3 type  1   force =     0.00000000    0.00000000   -0.02124797
     atom    4 type  2   force =    -0.00000000   -0.00000000   -0.07555552
     atom    5 type  3   force =     0.00000000    0.00000000    0.08142598

     Total force =     0.113194     Total SCF correction =     0.019285
     SCF correction compared to forces is large: reduce conv_thr to get better values

     BFGS Geometry Optimization
     Energy error            =      0.0E+00
     Gradient error          =      8.1E-02

     bfgs converged in   1 scf cycles and   0 bfgs steps
     (criteria: energy <  1.0E-04 Ry, force <  1.0E-01 Ry/Bohr)

     End of BFGS Geometry Optimization

     Final energy   =    -178.3012544937 Ry
Begin final coordinates

ATOMIC_POSITIONS (angstrom)
Al            1.4318912319        0.8267027882        0.0000000000    0   0   0
Al            0.0000000000        1.6534055764        2.3382685902
Al            0.0000000000        0.0000000000        4.6765371804
O             0.0000000000        0.0000000000        6.7220000000
C             0.0000000000        0.0000000000        7.8820000000
End final coordinates



     Writing output data file ./output/pwscf.save/

     init_run     :      0.49s CPU      0.52s WALL (       1 calls)
     electrons    :      2.35s CPU      2.38s WALL (       1 calls)
     forces       :      0.22s CPU      0.22s WALL (       1 calls)

     Called by init_run:
     wfcinit      :      0.02s CPU      0.02s WALL (       1 calls)
     potinit      :      0.20s CPU      0.21s WALL (       1 calls)
     hinit0       :      0.24s CPU      0.24s WALL (       1 calls)

     Called by electrons:
     c_bands      :      0.44s CPU      0.46s WALL (      10 calls)
     sum_band     :      0.34s CPU      0.35s WALL (      10 calls)
     v_of_rho     :      0.09s CPU      0.09s WALL (      11 calls)
     newd         :      0.31s CPU      0.33s WALL (      11 calls)
     PAW_pot      :      1.29s CPU      1.30s WALL (      11 calls)
     mix_rho      :      0.01s CPU      0.01s WALL (      10 calls)

     Called by c_bands:
     init_us_2    :      0.01s CPU      0.01s WALL (      66 calls)
     cegterg      :      0.41s CPU      0.43s WALL (      30 calls)

     Called by *egterg:
     cdiaghg      :      0.05s CPU      0.05s WALL (     148 calls)
     h_psi        :      0.23s CPU      0.24s WALL (     151 calls)
     s_psi        :      0.04s CPU      0.04s WALL (     151 calls)
     g_psi        :      0.00s CPU      0.00s WALL (     118 calls)

     Called by h_psi:
     h_psi:calbec :      0.05s CPU      0.06s WALL (     151 calls)
     vloc_psi     :      0.13s CPU      0.14s WALL (     151 calls)
     add_vuspsi   :      0.04s CPU      0.04s WALL (     151 calls)

     General routines
     calbec       :      0.08s CPU      0.08s WALL (     193 calls)
     fft          :      0.08s CPU      0.08s WALL (     152 calls)
     ffts         :      0.00s CPU      0.00s WALL (      21 calls)
     fftw         :      0.14s CPU      0.14s WALL (    2770 calls)
     interpolate  :      0.01s CPU      0.01s WALL (      11 calls)

     Parallel routines
     fft_scatt_xy :      0.02s CPU      0.02s WALL (    2943 calls)
     fft_scatt_yz :      0.11s CPU      0.12s WALL (    2943 calls)

     PWSCF        :      3.21s CPU      3.28s WALL


   This run was terminated on:  19:37:31  12Jun2023            

=------------------------------------------------------------------------------=
   JOB DONE.
=------------------------------------------------------------------------------=
