
     Program PROJWFC v.7.2 starts on 11Jun2023 at 15: 9: 0 

     This program is part of the open-source Quantum ESPRESSO suite
     for quantum simulation of materials; please cite
         "P. Giannozzi et al., J. Phys.:Condens. Matter 21 395502 (2009);
         "P. Giannozzi et al., J. Phys.:Condens. Matter 29 465901 (2017);
         "P. Giannozzi et al., J. Chem. Phys. 152 154105 (2020);
          URL http://www.quantum-espresso.org", 
     in publications or presentations arising from this work. More details at
     http://www.quantum-espresso.org/quote

     Parallel version (MPI), running on     8 processors

     MPI processes distributed on     1 nodes
     R & G space division:  proc/nbgrp/npool/nimage =       8
     15600 MiB available memory on the printing compute node when the environment starts


     Reading xml data from directory:

     ./Pt.save/
     file Pt.pbe-n-kjpaw_psl.1.0.0.UPF: wavefunction(s)  6S 5D renormalized

     IMPORTANT: XC functional enforced from input :
     Exchange-correlation= PBE
                           (   1   4   3   4   0   0   0)
     Any further DFT definition will be discarded
     Please, verify this is what you really want


     Parallelization info
     --------------------
     sticks:   dense  smooth     PW     G-vecs:    dense   smooth      PW
     Min          54      54     17                  888      888     163
     Max          55      55     19                  893      893     166
     Sum         437     437    145                 7123     7123    1309

     Using Slab Decomposition


     Gaussian broadening (read from file): ngauss,degauss=   1    0.010000


     Calling projwave .... 
     Subspace diagonalization in iterative solution of the eigenvalue problem:
     a serial algorithm will be used


  Problem Sizes 
  natomwfc =           36
  nbnd     =           24
  nkstot   =           40
  npwx     =          125
  nkb      =           72


     Atomic states used for projection
     (read from pseudopotential files):

     state #   1: atom   1 (Pt ), wfc  1 (l=0 m= 1)
     state #   2: atom   1 (Pt ), wfc  2 (l=1 m= 1)
     state #   3: atom   1 (Pt ), wfc  2 (l=1 m= 2)
     state #   4: atom   1 (Pt ), wfc  2 (l=1 m= 3)
     state #   5: atom   1 (Pt ), wfc  3 (l=2 m= 1)
     state #   6: atom   1 (Pt ), wfc  3 (l=2 m= 2)
     state #   7: atom   1 (Pt ), wfc  3 (l=2 m= 3)
     state #   8: atom   1 (Pt ), wfc  3 (l=2 m= 4)
     state #   9: atom   1 (Pt ), wfc  3 (l=2 m= 5)
     state #  10: atom   2 (Pt ), wfc  1 (l=0 m= 1)
     state #  11: atom   2 (Pt ), wfc  2 (l=1 m= 1)
     state #  12: atom   2 (Pt ), wfc  2 (l=1 m= 2)
     state #  13: atom   2 (Pt ), wfc  2 (l=1 m= 3)
     state #  14: atom   2 (Pt ), wfc  3 (l=2 m= 1)
     state #  15: atom   2 (Pt ), wfc  3 (l=2 m= 2)
     state #  16: atom   2 (Pt ), wfc  3 (l=2 m= 3)
     state #  17: atom   2 (Pt ), wfc  3 (l=2 m= 4)
     state #  18: atom   2 (Pt ), wfc  3 (l=2 m= 5)
     state #  19: atom   3 (Pt ), wfc  1 (l=0 m= 1)
     state #  20: atom   3 (Pt ), wfc  2 (l=1 m= 1)
     state #  21: atom   3 (Pt ), wfc  2 (l=1 m= 2)
     state #  22: atom   3 (Pt ), wfc  2 (l=1 m= 3)
     state #  23: atom   3 (Pt ), wfc  3 (l=2 m= 1)
     state #  24: atom   3 (Pt ), wfc  3 (l=2 m= 2)
     state #  25: atom   3 (Pt ), wfc  3 (l=2 m= 3)
     state #  26: atom   3 (Pt ), wfc  3 (l=2 m= 4)
     state #  27: atom   3 (Pt ), wfc  3 (l=2 m= 5)
     state #  28: atom   4 (Pt ), wfc  1 (l=0 m= 1)
     state #  29: atom   4 (Pt ), wfc  2 (l=1 m= 1)
     state #  30: atom   4 (Pt ), wfc  2 (l=1 m= 2)
     state #  31: atom   4 (Pt ), wfc  2 (l=1 m= 3)
     state #  32: atom   4 (Pt ), wfc  3 (l=2 m= 1)
     state #  33: atom   4 (Pt ), wfc  3 (l=2 m= 2)
     state #  34: atom   4 (Pt ), wfc  3 (l=2 m= 3)
     state #  35: atom   4 (Pt ), wfc  3 (l=2 m= 4)
     state #  36: atom   4 (Pt ), wfc  3 (l=2 m= 5)

 k =   0.0000000000  0.0000000000  0.0000000000
==== e(   1) =     6.89362 eV ==== 
     psi = 0.249*[#   1]+0.249*[#  10]+0.249*[#  19]+0.249*[#  28]
    |psi|^2 = 0.998
==== e(   2) =    10.02368 eV ==== 
     psi = 0.313*[#  32]+0.235*[#  17]+0.235*[#  26]+0.078*[#  14]+0.078*[#  23]
          +0.045*[#   1]+0.005*[#  10]+0.005*[#  19]+0.005*[#  28]
    |psi|^2 = 1.000
==== e(   3) =    10.02450 eV ==== 
     psi = 0.176*[#  35]+0.176*[#   5]+0.176*[#   8]+0.137*[#  14]+0.137*[#  23]
          +0.059*[#  17]+0.059*[#  26]+0.020*[#  10]+0.020*[#  19]+0.020*[#  28]
          +0.020*[#  32]
    |psi|^2 = 1.000
==== e(   4) =    10.02450 eV ==== 
     psi = 0.176*[#  35]+0.176*[#   5]+0.176*[#   8]+0.137*[#  14]+0.137*[#  23]
          +0.059*[#  17]+0.059*[#  26]+0.020*[#  10]+0.020*[#  19]+0.020*[#  28]
          +0.020*[#  32]
    |psi|^2 = 1.000
==== e(   5) =    10.45328 eV ==== 
     psi = 0.083*[#  15]+0.083*[#  18]+0.083*[#   6]+0.083*[#   7]+0.083*[#   9]
          +0.083*[#  16]+0.083*[#  33]+0.083*[#  27]+0.083*[#  34]+0.083*[#  25]
          +0.083*[#  24]+0.083*[#  36]
    |psi|^2 = 0.999
==== e(   6) =    10.45328 eV ==== 
     psi = 0.083*[#  15]+0.083*[#  18]+0.083*[#   6]+0.083*[#   7]+0.083*[#   9]
          +0.083*[#  16]+0.083*[#  33]+0.083*[#  27]+0.083*[#  34]+0.083*[#  25]
          +0.083*[#  24]+0.083*[#  36]
    |psi|^2 = 0.999
==== e(   7) =    10.45328 eV ==== 
     psi = 0.083*[#  15]+0.083*[#  18]+0.083*[#   6]+0.083*[#   7]+0.083*[#   9]
          +0.083*[#  16]+0.083*[#  33]+0.083*[#  27]+0.083*[#  34]+0.083*[#  25]
          +0.083*[#  24]+0.083*[#  36]
    |psi|^2 = 0.999
==== e(   8) =    13.08380 eV ==== 
     psi = 0.083*[#  16]+0.083*[#  24]+0.083*[#  36]+0.083*[#   6]+0.083*[#   7]
          +0.083*[#   9]+0.083*[#  15]+0.083*[#  18]+0.083*[#  25]+0.083*[#  27]
          +0.083*[#  33]+0.083*[#  34]
    |psi|^2 = 1.000
==== e(   9) =    13.08380 eV ==== 
     psi = 0.083*[#  16]+0.083*[#  24]+0.083*[#  36]+0.083*[#   6]+0.083*[#   7]
          +0.083*[#   9]+0.083*[#  15]+0.083*[#  18]+0.083*[#  25]+0.083*[#  27]
          +0.083*[#  33]+0.083*[#  34]
    |psi|^2 = 1.000
==== e(  10) =    13.08380 eV ==== 
     psi = 0.083*[#  16]+0.083*[#  24]+0.083*[#  36]+0.083*[#   6]+0.083*[#   7]
          +0.083*[#   9]+0.083*[#  15]+0.083*[#  18]+0.083*[#  25]+0.083*[#  27]
          +0.083*[#  33]+0.083*[#  34]
    |psi|^2 = 1.000
==== e(  11) =    15.07771 eV ==== 
     psi = 0.125*[#  17]+0.125*[#  26]+0.125*[#  32]+0.125*[#  14]+0.125*[#  23]
          +0.125*[#   5]+0.125*[#   8]+0.125*[#  35]
    |psi|^2 = 1.000
==== e(  12) =    15.07771 eV ==== 
     psi = 0.125*[#  17]+0.125*[#  26]+0.125*[#  32]+0.125*[#  14]+0.125*[#  23]
          +0.125*[#   5]+0.125*[#   8]+0.125*[#  35]
    |psi|^2 = 1.000
==== e(  13) =    16.59513 eV ==== 
     psi = 0.333*[#  35]+0.250*[#  14]+0.250*[#  23]+0.083*[#  17]+0.083*[#  26]
          
    |psi|^2 = 0.999
==== e(  14) =    16.59621 eV ==== 
     psi = 0.188*[#   5]+0.188*[#   8]+0.187*[#  32]+0.146*[#  17]+0.146*[#  26]
          +0.062*[#  14]+0.062*[#  23]+0.021*[#  35]
    |psi|^2 = 0.999
==== e(  15) =    16.59621 eV ==== 
     psi = 0.188*[#   5]+0.188*[#   8]+0.187*[#  32]+0.146*[#  17]+0.146*[#  26]
          +0.062*[#  14]+0.062*[#  23]+0.021*[#  35]
    |psi|^2 = 0.999
==== e(  16) =    17.05020 eV ==== 
     psi = 0.166*[#  15]+0.166*[#  18]+0.166*[#  25]+0.166*[#  27]+0.166*[#  33]
          +0.166*[#  34]
    |psi|^2 = 0.999
==== e(  17) =    17.05020 eV ==== 
     psi = 0.166*[#  15]+0.166*[#  18]+0.166*[#  25]+0.166*[#  27]+0.166*[#  33]
          +0.166*[#  34]
    |psi|^2 = 0.999
==== e(  18) =    17.05020 eV ==== 
     psi = 0.166*[#  15]+0.166*[#  18]+0.166*[#  25]+0.166*[#  27]+0.166*[#  33]
          +0.166*[#  34]
    |psi|^2 = 0.999
==== e(  19) =    17.05180 eV ==== 
     psi = 0.167*[#   6]+0.167*[#   7]+0.167*[#   9]+0.166*[#  16]+0.166*[#  24]
          +0.166*[#  36]
    |psi|^2 = 0.999
==== e(  20) =    17.05180 eV ==== 
     psi = 0.167*[#   6]+0.167*[#   7]+0.167*[#   9]+0.166*[#  16]+0.166*[#  24]
          +0.166*[#  36]
    |psi|^2 = 0.999
==== e(  21) =    17.05180 eV ==== 
     psi = 0.167*[#   6]+0.167*[#   7]+0.167*[#   9]+0.166*[#  16]+0.166*[#  24]
          +0.166*[#  36]
    |psi|^2 = 0.999
==== e(  22) =    18.53953 eV ==== 
     psi = 0.082*[#   2]+0.082*[#   3]+0.082*[#   4]+0.082*[#  11]+0.082*[#  12]
          +0.082*[#  13]+0.082*[#  20]+0.082*[#  21]+0.082*[#  22]+0.082*[#  29]
          +0.082*[#  30]+0.082*[#  31]
    |psi|^2 = 0.984
==== e(  23) =    18.53953 eV ==== 
     psi = 0.082*[#   2]+0.082*[#   3]+0.082*[#   4]+0.082*[#  11]+0.082*[#  12]
          +0.082*[#  13]+0.082*[#  20]+0.082*[#  21]+0.082*[#  22]+0.082*[#  29]
          +0.082*[#  30]+0.082*[#  31]
    |psi|^2 = 0.984
==== e(  24) =    18.53953 eV ==== 
     psi = 0.082*[#   2]+0.082*[#   3]+0.082*[#   4]+0.082*[#  11]+0.082*[#  12]
          +0.082*[#  13]+0.082*[#  20]+0.082*[#  21]+0.082*[#  22]+0.082*[#  29]
          +0.082*[#  30]+0.082*[#  31]
    |psi|^2 = 0.984

 k =   0.0000000000  0.0000000000  0.1428571429
==== e(   1) =     7.15511 eV ==== 
     psi = 0.181*[#   1]+0.181*[#  10]+0.181*[#  19]+0.181*[#  28]+0.023*[#   2]
          +0.023*[#   3]+0.023*[#   4]+0.023*[#  11]+0.023*[#  12]+0.023*[#  13]
          +0.023*[#  20]+0.023*[#  21]+0.023*[#  22]+0.023*[#  29]+0.023*[#  30]
          +0.023*[#  31]
    |psi|^2 = 0.999
==== e(   2) =    10.11405 eV ==== 
     psi = 0.113*[#  32]+0.112*[#  17]+0.112*[#  26]+0.112*[#  14]+0.112*[#  23]
          +0.111*[#   5]+0.111*[#   8]+0.111*[#  35]+0.019*[#   1]+0.019*[#  10]
          +0.019*[#  19]+0.019*[#  28]+0.002*[#   2]+0.002*[#   3]+0.002*[#   4]
          +0.002*[#  11]+0.003*[#  12]+0.002*[#  13]+0.002*[#  20]+0.002*[#  21]
          +0.003*[#  22]+0.003*[#  29]+0.002*[#  30]+0.002*[#  31]
    |psi|^2 = 1.000
==== e(   3) =    10.21256 eV ==== 
     psi = 0.216*[#  32]+0.177*[#  17]+0.177*[#  26]+0.100*[#  14]+0.100*[#  23]
          +0.061*[#  35]+0.054*[#   5]+0.054*[#   8]+0.027*[#   1]+0.009*[#  10]
          +0.009*[#  19]+0.009*[#  28]+0.001*[#   2]+0.001*[#   3]+0.001*[#   4]
          +0.001*[#  12]+0.001*[#  22]+0.001*[#  29]
    |psi|^2 = 1.000
==== e(   4) =    10.21315 eV ==== 
     psi = 0.181*[#   5]+0.181*[#   8]+0.174*[#  35]+0.135*[#  14]+0.135*[#  23]
          +0.057*[#  17]+0.057*[#  26]+0.018*[#  10]+0.018*[#  19]+0.018*[#  28]
          +0.018*[#  32]+0.001*[#  11]+0.001*[#  13]+0.001*[#  20]+0.001*[#  21]
          +0.001*[#  30]+0.001*[#  31]
    |psi|^2 = 1.000
==== e(   5) =    10.55973 eV ==== 
     psi = 0.083*[#  15]+0.083*[#  18]+0.083*[#   6]+0.083*[#   7]+0.083*[#   9]
          +0.083*[#  16]+0.083*[#  33]+0.083*[#  27]+0.083*[#  34]+0.083*[#  25]
          +0.083*[#  24]+0.083*[#  36]
    |psi|^2 = 0.999
==== e(   6) =    10.61330 eV ==== 
     psi = 0.082*[#  15]+0.082*[#  18]+0.082*[#  27]+0.082*[#  33]+0.082*[#  34]
          +0.082*[#   6]+0.082*[#  16]+0.082*[#   7]+0.082*[#   9]+0.082*[#  24]
          +0.082*[#  25]+0.082*[#  36]
    |psi|^2 = 0.999
==== e(   7) =    10.61330 eV ==== 
     psi = 0.082*[#  15]+0.082*[#  18]+0.082*[#  27]+0.082*[#  33]+0.082*[#  34]
          +0.082*[#   6]+0.082*[#  16]+0.082*[#   7]+0.082*[#   9]+0.082*[#  24]
          +0.082*[#  25]+0.082*[#  36]
    |psi|^2 = 0.999
==== e(   8) =    12.92011 eV ==== 
     psi = 0.083*[#  16]+0.083*[#  24]+0.083*[#  36]+0.083*[#   6]+0.083*[#   7]
          +0.083*[#   9]+0.083*[#  15]+0.083*[#  18]+0.083*[#  25]+0.083*[#  27]
          +0.083*[#  33]+0.083*[#  34]
    |psi|^2 = 1.000
==== e(   9) =    13.21732 eV ==== 
     psi = 0.083*[#  16]+0.083*[#  24]+0.083*[#  36]+0.083*[#   6]+0.083*[#   7]
          +0.083*[#   9]+0.083*[#  15]+0.083*[#  18]+0.083*[#  25]+0.083*[#  27]
          +0.083*[#  33]+0.083*[#  34]
    |psi|^2 = 1.000
==== e(  10) =    13.21732 eV ==== 
     psi = 0.083*[#  16]+0.083*[#  24]+0.083*[#  36]+0.083*[#   6]+0.083*[#   7]
          +0.083*[#   9]+0.083*[#  15]+0.083*[#  18]+0.083*[#  25]+0.083*[#  27]
          +0.083*[#  33]+0.083*[#  34]
    |psi|^2 = 1.000
==== e(  11) =    14.89704 eV ==== 
     psi = 0.125*[#  17]+0.125*[#  26]+0.125*[#  32]+0.125*[#  14]+0.125*[#  23]
          +0.125*[#   5]+0.125*[#   8]+0.125*[#  35]
    |psi|^2 = 0.999
==== e(  12) =    15.14591 eV ==== 
     psi = 0.125*[#  17]+0.125*[#  26]+0.125*[#  32]+0.125*[#  14]+0.125*[#  23]
          +0.125*[#   5]+0.125*[#   8]+0.125*[#  35]
    |psi|^2 = 1.000
==== e(  13) =    15.83896 eV ==== 
     psi = 0.069*[#  15]+0.069*[#  18]+0.069*[#  25]+0.069*[#  27]+0.069*[#  33]
          +0.069*[#  34]+0.069*[#   6]+0.069*[#   7]+0.069*[#   9]+0.069*[#  16]
          +0.069*[#  24]+0.069*[#  36]+0.014*[#   2]+0.014*[#   3]+0.014*[#   4]
          +0.014*[#  11]+0.014*[#  12]+0.014*[#  13]+0.014*[#  20]+0.014*[#  21]
          +0.014*[#  22]+0.014*[#  29]+0.014*[#  30]+0.014*[#  31]
    |psi|^2 = 0.997
==== e(  14) =    15.83896 eV ==== 
     psi = 0.069*[#  15]+0.069*[#  18]+0.069*[#  25]+0.069*[#  27]+0.069*[#  33]
          +0.069*[#  34]+0.069*[#   6]+0.069*[#   7]+0.069*[#   9]+0.069*[#  16]
          +0.069*[#  24]+0.069*[#  36]+0.014*[#   2]+0.014*[#   3]+0.014*[#   4]
          +0.014*[#  11]+0.014*[#  12]+0.014*[#  13]+0.014*[#  20]+0.014*[#  21]
          +0.014*[#  22]+0.014*[#  29]+0.014*[#  30]+0.014*[#  31]
    |psi|^2 = 0.997
==== e(  15) =    16.32340 eV ==== 
     psi = 0.230*[#  35]+0.189*[#  14]+0.189*[#  23]+0.105*[#  17]+0.105*[#  26]
          +0.063*[#  32]+0.057*[#   5]+0.057*[#   8]
    |psi|^2 = 0.999
==== e(  16) =    16.32415 eV ==== 
     psi = 0.191*[#   5]+0.191*[#   8]+0.185*[#  32]+0.144*[#  17]+0.144*[#  26]
          +0.061*[#  14]+0.061*[#  23]+0.019*[#  35]
    |psi|^2 = 0.999
==== e(  17) =    16.51223 eV ==== 
     psi = 0.125*[#   5]+0.125*[#   8]+0.125*[#  32]+0.125*[#  17]+0.125*[#  26]
          +0.124*[#  14]+0.124*[#  23]+0.124*[#  35]
    |psi|^2 = 0.999
==== e(  18) =    16.73265 eV ==== 
     psi = 0.083*[#   6]+0.083*[#   7]+0.083*[#   9]+0.083*[#  16]+0.083*[#  24]
          +0.083*[#  36]+0.083*[#  15]+0.083*[#  18]+0.083*[#  25]+0.083*[#  27]
          +0.083*[#  33]+0.083*[#  34]
    |psi|^2 = 0.999
==== e(  19) =    16.73265 eV ==== 
     psi = 0.083*[#   6]+0.083*[#   7]+0.083*[#   9]+0.083*[#  16]+0.083*[#  24]
          +0.083*[#  36]+0.083*[#  15]+0.083*[#  18]+0.083*[#  25]+0.083*[#  27]
          +0.083*[#  33]+0.083*[#  34]
    |psi|^2 = 0.999
==== e(  20) =    17.05103 eV ==== 
     psi = 0.166*[#  15]+0.166*[#  18]+0.166*[#  25]+0.166*[#  27]+0.166*[#  33]
          +0.166*[#  34]
    |psi|^2 = 0.999
==== e(  21) =    17.05263 eV ==== 
     psi = 0.167*[#   6]+0.167*[#   7]+0.167*[#   9]+0.166*[#  16]+0.166*[#  24]
          +0.166*[#  36]
    |psi|^2 = 0.999
==== e(  22) =    17.28063 eV ==== 
     psi = 0.065*[#   2]+0.065*[#   3]+0.065*[#   4]+0.065*[#  11]+0.065*[#  12]
          +0.065*[#  13]+0.065*[#  20]+0.065*[#  21]+0.065*[#  22]+0.065*[#  29]
          +0.065*[#  30]+0.065*[#  31]+0.036*[#   1]+0.036*[#  10]+0.036*[#  19]
          +0.036*[#  28]+0.009*[#   5]+0.009*[#   8]+0.009*[#  14]+0.009*[#  17]
          +0.009*[#  23]+0.009*[#  26]+0.009*[#  32]+0.009*[#  35]
    |psi|^2 = 0.992
==== e(  23) =    19.90060 eV ==== 
     psi = 0.068*[#   2]+0.068*[#   3]+0.068*[#   4]+0.068*[#  11]+0.068*[#  12]
          +0.068*[#  13]+0.068*[#  20]+0.068*[#  21]+0.068*[#  22]+0.068*[#  29]
          +0.068*[#  30]+0.068*[#  31]+0.015*[#   6]+0.015*[#   7]+0.015*[#   9]
          +0.015*[#  15]+0.015*[#  16]+0.015*[#  18]+0.015*[#  24]+0.015*[#  25]
          +0.015*[#  27]+0.015*[#  33]+0.015*[#  34]+0.015*[#  36]
    |psi|^2 = 0.985
==== e(  24) =    19.90060 eV ==== 
     psi = 0.068*[#   2]+0.068*[#   3]+0.068*[#   4]+0.068*[#  11]+0.068*[#  12]
          +0.068*[#  13]+0.068*[#  20]+0.068*[#  21]+0.068*[#  22]+0.068*[#  29]
          +0.068*[#  30]+0.068*[#  31]+0.015*[#   6]+0.015*[#   7]+0.015*[#   9]
          +0.015*[#  15]+0.015*[#  16]+0.015*[#  18]+0.015*[#  24]+0.015*[#  25]
          +0.015*[#  27]+0.015*[#  33]+0.015*[#  34]+0.015*[#  36]
    |psi|^2 = 0.985

 k =   0.0000000000  0.0000000000  0.2857142857
==== e(   1) =     7.90582 eV ==== 
     psi = 0.109*[#   1]+0.109*[#  10]+0.109*[#  19]+0.109*[#  28]+0.046*[#   2]
          +0.046*[#   3]+0.046*[#   4]+0.046*[#  11]+0.046*[#  12]+0.046*[#  13]
          +0.046*[#  20]+0.046*[#  21]+0.046*[#  22]+0.046*[#  29]+0.046*[#  30]
          +0.046*[#  31]+0.001*[#   5]+0.001*[#   8]+0.001*[#  14]+0.001*[#  17]
          +0.001*[#  23]+0.001*[#  26]+0.001*[#  32]+0.001*[#  35]
    |psi|^2 = 1.000
==== e(   2) =    10.25982 eV ==== 
     psi = 0.089*[#  17]+0.089*[#  26]+0.089*[#  32]+0.088*[#  14]+0.088*[#  23]
          +0.088*[#   5]+0.088*[#   8]+0.088*[#  35]+0.030*[#   1]+0.030*[#  10]
          +0.030*[#  19]+0.030*[#  28]+0.014*[#   2]+0.014*[#   3]+0.014*[#   4]
          +0.014*[#  11]+0.014*[#  12]+0.014*[#  13]+0.014*[#  20]+0.014*[#  21]
          +0.014*[#  22]+0.014*[#  29]+0.014*[#  30]+0.014*[#  31]
    |psi|^2 = 0.999
==== e(   3) =    10.71536 eV ==== 
     psi = 0.223*[#  32]+0.184*[#  17]+0.184*[#  26]+0.105*[#  14]+0.105*[#  23]
          +0.066*[#  35]+0.036*[#   5]+0.036*[#   8]+0.018*[#   1]+0.006*[#  10]
          +0.006*[#  19]+0.006*[#  28]+0.004*[#   2]+0.004*[#   3]+0.004*[#   4]
          +0.004*[#  12]+0.004*[#  22]+0.004*[#  29]
    |psi|^2 = 1.000
==== e(   4) =    10.71611 eV ==== 
     psi = 0.199*[#   5]+0.199*[#   8]+0.168*[#  35]+0.129*[#  14]+0.129*[#  23]
          +0.051*[#  17]+0.051*[#  26]+0.012*[#  10]+0.012*[#  19]+0.012*[#  28]
          +0.012*[#  32]+0.004*[#  11]+0.004*[#  13]+0.004*[#  20]+0.004*[#  21]
          +0.004*[#  30]+0.004*[#  31]
    |psi|^2 = 1.000
==== e(   5) =    10.86849 eV ==== 
     psi = 0.083*[#  15]+0.083*[#  18]+0.083*[#  25]+0.083*[#  27]+0.083*[#  33]
          +0.083*[#  34]+0.083*[#   6]+0.083*[#   7]+0.083*[#   9]+0.083*[#  16]
          +0.083*[#  24]+0.083*[#  36]
    |psi|^2 = 0.999
==== e(   6) =    11.09003 eV ==== 
     psi = 0.080*[#  15]+0.080*[#  18]+0.080*[#  27]+0.080*[#  33]+0.080*[#  34]
          +0.080*[#   6]+0.080*[#  16]+0.080*[#   7]+0.080*[#   9]+0.080*[#  24]
          +0.080*[#  25]+0.080*[#  36]+0.003*[#   2]+0.003*[#   3]+0.003*[#   4]
          +0.003*[#  11]+0.003*[#  12]+0.003*[#  13]+0.003*[#  20]+0.003*[#  21]
          +0.003*[#  22]+0.003*[#  29]+0.003*[#  30]+0.003*[#  31]
    |psi|^2 = 0.999
==== e(   7) =    11.09003 eV ==== 
     psi = 0.080*[#  15]+0.080*[#  18]+0.080*[#  27]+0.080*[#  33]+0.080*[#  34]
          +0.080*[#   6]+0.080*[#  16]+0.080*[#   7]+0.080*[#   9]+0.080*[#  24]
          +0.080*[#  25]+0.080*[#  36]+0.003*[#   2]+0.003*[#   3]+0.003*[#   4]
          +0.003*[#  11]+0.003*[#  12]+0.003*[#  13]+0.003*[#  20]+0.003*[#  21]
          +0.003*[#  22]+0.003*[#  29]+0.003*[#  30]+0.003*[#  31]
    |psi|^2 = 0.999
==== e(   8) =    12.48679 eV ==== 
     psi = 0.083*[#   6]+0.083*[#   7]+0.083*[#   9]+0.083*[#  16]+0.083*[#  24]
          +0.083*[#  36]+0.083*[#  15]+0.083*[#  18]+0.083*[#  25]+0.083*[#  27]
          +0.083*[#  33]+0.083*[#  34]
    |psi|^2 = 0.999
==== e(   9) =    13.61114 eV ==== 
     psi = 0.083*[#  16]+0.083*[#  24]+0.083*[#  36]+0.083*[#   6]+0.083*[#   7]
          +0.083*[#   9]+0.083*[#  15]+0.083*[#  18]+0.083*[#  25]+0.083*[#  27]
          +0.083*[#  33]+0.083*[#  34]
    |psi|^2 = 1.000
==== e(  10) =    13.61114 eV ==== 
     psi = 0.083*[#  16]+0.083*[#  24]+0.083*[#  36]+0.083*[#   6]+0.083*[#   7]
          +0.083*[#   9]+0.083*[#  15]+0.083*[#  18]+0.083*[#  25]+0.083*[#  27]
          +0.083*[#  33]+0.083*[#  34]
    |psi|^2 = 1.000
==== e(  11) =    14.29611 eV ==== 
     psi = 0.072*[#   6]+0.072*[#   7]+0.072*[#   9]+0.072*[#  15]+0.072*[#  18]
          +0.072*[#  25]+0.072*[#  27]+0.072*[#  33]+0.072*[#  34]+0.072*[#  16]
          +0.072*[#  24]+0.072*[#  36]+0.011*[#   2]+0.011*[#   3]+0.011*[#   4]
          +0.011*[#  11]+0.011*[#  12]+0.011*[#  13]+0.011*[#  20]+0.011*[#  21]
          +0.011*[#  22]+0.011*[#  29]+0.011*[#  30]+0.011*[#  31]
    |psi|^2 = 0.998
==== e(  12) =    14.29611 eV ==== 
     psi = 0.072*[#   6]+0.072*[#   7]+0.072*[#   9]+0.072*[#  15]+0.072*[#  18]
          +0.072*[#  25]+0.072*[#  27]+0.072*[#  33]+0.072*[#  34]+0.072*[#  16]
          +0.072*[#  24]+0.072*[#  36]+0.011*[#   2]+0.011*[#   3]+0.011*[#   4]
          +0.011*[#  11]+0.011*[#  12]+0.011*[#  13]+0.011*[#  20]+0.011*[#  21]
          +0.011*[#  22]+0.011*[#  29]+0.011*[#  30]+0.011*[#  31]
    |psi|^2 = 0.998
==== e(  13) =    14.43038 eV ==== 
     psi = 0.124*[#  17]+0.124*[#  26]+0.124*[#  32]+0.124*[#  14]+0.124*[#  23]
          +0.124*[#  35]+0.124*[#   5]+0.124*[#   8]+0.001*[#   1]+0.001*[#  10]
          +0.001*[#  19]+0.001*[#  28]
    |psi|^2 = 0.999
==== e(  14) =    15.24635 eV ==== 
     psi = 0.047*[#   2]+0.047*[#   3]+0.047*[#   4]+0.047*[#  11]+0.047*[#  12]
          +0.047*[#  13]+0.047*[#  20]+0.047*[#  21]+0.047*[#  22]+0.047*[#  29]
          +0.047*[#  30]+0.047*[#  31]+0.038*[#   1]+0.038*[#  10]+0.038*[#  19]
          +0.038*[#  28]+0.035*[#  14]+0.035*[#  17]+0.035*[#  23]+0.035*[#  26]
          +0.035*[#  32]+0.035*[#  35]+0.035*[#   5]+0.035*[#   8]
    |psi|^2 = 0.993
==== e(  15) =    15.33949 eV ==== 
     psi = 0.125*[#  32]+0.125*[#  17]+0.125*[#  26]+0.125*[#  14]+0.125*[#  23]
          +0.125*[#  35]+0.125*[#   5]+0.125*[#   8]
    |psi|^2 = 1.000
==== e(  16) =    15.61576 eV ==== 
     psi = 0.231*[#  35]+0.191*[#  14]+0.191*[#  23]+0.109*[#  17]+0.109*[#  26]
          +0.068*[#  32]+0.040*[#   5]+0.040*[#   8]+0.006*[#  10]+0.006*[#  19]
          +0.006*[#  28]
    |psi|^2 = 0.999
==== e(  17) =    15.61664 eV ==== 
     psi = 0.205*[#   5]+0.205*[#   8]+0.176*[#  32]+0.135*[#  17]+0.135*[#  26]
          +0.054*[#  14]+0.054*[#  23]+0.013*[#  35]+0.009*[#   1]+0.003*[#  10]
          +0.003*[#  19]+0.003*[#  28]
    |psi|^2 = 0.999
==== e(  18) =    15.96483 eV ==== 
     psi = 0.083*[#   6]+0.083*[#   7]+0.083*[#   9]+0.083*[#  15]+0.083*[#  16]
          +0.083*[#  18]+0.083*[#  24]+0.083*[#  25]+0.083*[#  27]+0.083*[#  33]
          +0.083*[#  34]+0.083*[#  36]
    |psi|^2 = 0.999
==== e(  19) =    15.96483 eV ==== 
     psi = 0.083*[#   6]+0.083*[#   7]+0.083*[#   9]+0.083*[#  15]+0.083*[#  16]
          +0.083*[#  18]+0.083*[#  24]+0.083*[#  25]+0.083*[#  27]+0.083*[#  33]
          +0.083*[#  34]+0.083*[#  36]
    |psi|^2 = 0.999
==== e(  20) =    16.28335 eV ==== 
     psi = 0.125*[#   5]+0.125*[#   8]+0.125*[#  14]+0.125*[#  17]+0.125*[#  23]
          +0.125*[#  26]+0.125*[#  32]+0.125*[#  35]
    |psi|^2 = 0.999
==== e(  21) =    17.05251 eV ==== 
     psi = 0.166*[#  15]+0.166*[#  18]+0.166*[#  25]+0.166*[#  27]+0.166*[#  33]
          +0.166*[#  34]
    |psi|^2 = 0.999
==== e(  22) =    17.05411 eV ==== 
     psi = 0.167*[#   6]+0.167*[#   7]+0.167*[#   9]+0.166*[#  16]+0.166*[#  24]
          +0.166*[#  36]
    |psi|^2 = 0.999
==== e(  23) =    21.86619 eV ==== 
     psi = 0.071*[#   2]+0.071*[#   3]+0.071*[#   4]+0.071*[#  11]+0.071*[#  12]
          +0.071*[#  13]+0.071*[#  20]+0.071*[#  21]+0.071*[#  22]+0.071*[#  29]
          +0.071*[#  30]+0.071*[#  31]+0.011*[#   6]+0.011*[#   7]+0.011*[#   9]
          +0.011*[#  15]+0.011*[#  16]+0.011*[#  18]+0.011*[#  24]+0.011*[#  25]
          +0.011*[#  27]+0.011*[#  33]+0.011*[#  34]+0.011*[#  36]
    |psi|^2 = 0.984
==== e(  24) =    21.86619 eV ==== 
     psi = 0.071*[#   2]+0.071*[#   3]+0.071*[#   4]+0.071*[#  11]+0.071*[#  12]
          +0.071*[#  13]+0.071*[#  20]+0.071*[#  21]+0.071*[#  22]+0.071*[#  29]
          +0.071*[#  30]+0.071*[#  31]+0.011*[#   6]+0.011*[#   7]+0.011*[#   9]
          +0.011*[#  15]+0.011*[#  16]+0.011*[#  18]+0.011*[#  24]+0.011*[#  25]
          +0.011*[#  27]+0.011*[#  33]+0.011*[#  34]+0.011*[#  36]
    |psi|^2 = 0.984

 k =   0.0000000000  0.0000000000  0.4285714286
==== e(   1) =     9.00124 eV ==== 
     psi = 0.075*[#   1]+0.075*[#  10]+0.075*[#  19]+0.075*[#  28]+0.053*[#   2]
          +0.053*[#   3]+0.053*[#   4]+0.053*[#  11]+0.053*[#  12]+0.053*[#  13]
          +0.053*[#  20]+0.053*[#  21]+0.053*[#  22]+0.053*[#  29]+0.053*[#  30]
          +0.053*[#  31]+0.008*[#   5]+0.008*[#   8]+0.008*[#  14]+0.008*[#  17]
          +0.008*[#  23]+0.008*[#  26]+0.008*[#  32]+0.008*[#  35]
    |psi|^2 = 0.999
==== e(   2) =     9.99244 eV ==== 
     psi = 0.051*[#   1]+0.051*[#  10]+0.051*[#  19]+0.051*[#  28]+0.040*[#   2]
          +0.040*[#   3]+0.040*[#   4]+0.040*[#   5]+0.040*[#   8]+0.040*[#  11]
          +0.040*[#  12]+0.040*[#  13]+0.040*[#  14]+0.040*[#  17]+0.040*[#  20]
          +0.040*[#  21]+0.040*[#  22]+0.040*[#  23]+0.040*[#  26]+0.040*[#  29]
          +0.040*[#  30]+0.040*[#  31]+0.040*[#  32]+0.040*[#  35]
    |psi|^2 = 0.999
==== e(   3) =    11.25743 eV ==== 
     psi = 0.235*[#  32]+0.195*[#  17]+0.195*[#  26]+0.116*[#  14]+0.116*[#  23]
          +0.077*[#  35]+0.007*[#   2]+0.007*[#   3]+0.007*[#   4]+0.007*[#  12]
          +0.007*[#  22]+0.007*[#  29]+0.007*[#   5]+0.007*[#   8]+0.003*[#   1]
          +0.001*[#  10]+0.001*[#  19]+0.001*[#  28]
    |psi|^2 = 1.000
==== e(   4) =    11.25846 eV ==== 
     psi = 0.230*[#   5]+0.230*[#   8]+0.160*[#  35]+0.121*[#  14]+0.121*[#  23]
          +0.042*[#  17]+0.042*[#  26]+0.007*[#  11]+0.007*[#  13]+0.007*[#  20]
          +0.007*[#  21]+0.007*[#  30]+0.007*[#  31]+0.002*[#  32]+0.002*[#  10]
          +0.002*[#  19]+0.002*[#  28]
    |psi|^2 = 1.000
==== e(   5) =    11.34249 eV ==== 
     psi = 0.083*[#  15]+0.083*[#  18]+0.083*[#  25]+0.083*[#  27]+0.083*[#  33]
          +0.083*[#  34]+0.083*[#   6]+0.083*[#   7]+0.083*[#   9]+0.083*[#  16]
          +0.083*[#  24]+0.083*[#  36]
    |psi|^2 = 0.999
==== e(   6) =    11.87691 eV ==== 
     psi = 0.078*[#  15]+0.078*[#  16]+0.078*[#  18]+0.078*[#  24]+0.078*[#  25]
          +0.078*[#  27]+0.078*[#  33]+0.078*[#  34]+0.078*[#  36]+0.078*[#   6]
          +0.078*[#   7]+0.078*[#   9]+0.005*[#   2]+0.005*[#   3]+0.005*[#   4]
          +0.005*[#  11]+0.005*[#  12]+0.005*[#  13]+0.005*[#  20]+0.005*[#  21]
          +0.005*[#  22]+0.005*[#  29]+0.005*[#  30]+0.005*[#  31]
    |psi|^2 = 0.999
==== e(   7) =    11.87691 eV ==== 
     psi = 0.078*[#  15]+0.078*[#  16]+0.078*[#  18]+0.078*[#  24]+0.078*[#  25]
          +0.078*[#  27]+0.078*[#  33]+0.078*[#  34]+0.078*[#  36]+0.078*[#   6]
          +0.078*[#   7]+0.078*[#   9]+0.005*[#   2]+0.005*[#   3]+0.005*[#   4]
          +0.005*[#  11]+0.005*[#  12]+0.005*[#  13]+0.005*[#  20]+0.005*[#  21]
          +0.005*[#  22]+0.005*[#  29]+0.005*[#  30]+0.005*[#  31]
    |psi|^2 = 0.999
==== e(   8) =    11.91642 eV ==== 
     psi = 0.083*[#   6]+0.083*[#   7]+0.083*[#   9]+0.083*[#  16]+0.083*[#  24]
          +0.083*[#  36]+0.083*[#  15]+0.083*[#  18]+0.083*[#  25]+0.083*[#  27]
          +0.083*[#  33]+0.083*[#  34]
    |psi|^2 = 0.999
==== e(   9) =    12.95442 eV ==== 
     psi = 0.076*[#  15]+0.076*[#  18]+0.076*[#  27]+0.076*[#  33]+0.076*[#  34]
          +0.076*[#   6]+0.076*[#  16]+0.076*[#   7]+0.076*[#   9]+0.076*[#  24]
          +0.076*[#  25]+0.076*[#  36]+0.008*[#   2]+0.008*[#   3]+0.008*[#   4]
          +0.008*[#  11]+0.008*[#  12]+0.008*[#  13]+0.008*[#  20]+0.008*[#  21]
          +0.008*[#  22]+0.008*[#  29]+0.008*[#  30]+0.008*[#  31]
    |psi|^2 = 0.999
==== e(  10) =    12.95442 eV ==== 
     psi = 0.076*[#  15]+0.076*[#  18]+0.076*[#  27]+0.076*[#  33]+0.076*[#  34]
          +0.076*[#   6]+0.076*[#  16]+0.076*[#   7]+0.076*[#   9]+0.076*[#  24]
          +0.076*[#  25]+0.076*[#  36]+0.008*[#   2]+0.008*[#   3]+0.008*[#   4]
          +0.008*[#  11]+0.008*[#  12]+0.008*[#  13]+0.008*[#  20]+0.008*[#  21]
          +0.008*[#  22]+0.008*[#  29]+0.008*[#  30]+0.008*[#  31]
    |psi|^2 = 0.999
==== e(  11) =    13.93097 eV ==== 
     psi = 0.119*[#  35]+0.118*[#  14]+0.118*[#  23]+0.117*[#  17]+0.117*[#  26]
          +0.116*[#  32]+0.114*[#   5]+0.114*[#   8]+0.005*[#  10]+0.005*[#  19]
          +0.005*[#  28]+0.005*[#   1]+0.004*[#   2]+0.004*[#   3]+0.004*[#   4]
          +0.004*[#  12]+0.004*[#  22]+0.004*[#  29]+0.003*[#  11]+0.003*[#  13]
          +0.003*[#  20]+0.003*[#  21]+0.003*[#  30]+0.003*[#  31]
    |psi|^2 = 0.998
==== e(  12) =    13.97503 eV ==== 
     psi = 0.087*[#   5]+0.087*[#   8]+0.086*[#  32]+0.085*[#  17]+0.085*[#  26]
          +0.084*[#  14]+0.084*[#  23]+0.083*[#  35]+0.021*[#  11]+0.021*[#  13]
          +0.021*[#  20]+0.021*[#  21]+0.021*[#  30]+0.021*[#  31]+0.020*[#   2]
          +0.020*[#   3]+0.020*[#   4]+0.020*[#  12]+0.020*[#  22]+0.020*[#  29]
          +0.018*[#   1]+0.018*[#  10]+0.018*[#  19]+0.018*[#  28]
    |psi|^2 = 0.996
==== e(  13) =    14.24321 eV ==== 
     psi = 0.083*[#  16]+0.083*[#  24]+0.083*[#  36]+0.083*[#   6]+0.083*[#   7]
          +0.083*[#   9]+0.083*[#  15]+0.083*[#  18]+0.083*[#  25]+0.083*[#  27]
          +0.083*[#  33]+0.083*[#  34]
    |psi|^2 = 0.999
==== e(  14) =    14.24321 eV ==== 
     psi = 0.083*[#  16]+0.083*[#  24]+0.083*[#  36]+0.083*[#   6]+0.083*[#   7]
          +0.083*[#   9]+0.083*[#  15]+0.083*[#  18]+0.083*[#  25]+0.083*[#  27]
          +0.083*[#  33]+0.083*[#  34]
    |psi|^2 = 0.999
==== e(  15) =    14.89345 eV ==== 
     psi = 0.234*[#  35]+0.195*[#  14]+0.195*[#  23]+0.116*[#  17]+0.116*[#  26]
          +0.076*[#  32]+0.016*[#  10]+0.016*[#  19]+0.016*[#  28]+0.008*[#   5]
          +0.008*[#   8]
    |psi|^2 = 0.999
==== e(  16) =    14.89459 eV ==== 
     psi = 0.230*[#   5]+0.230*[#   8]+0.160*[#  32]+0.121*[#  17]+0.121*[#  26]
          +0.042*[#  14]+0.042*[#  23]+0.025*[#   1]+0.008*[#  10]+0.008*[#  19]
          +0.008*[#  28]+0.003*[#  35]
    |psi|^2 = 0.999
==== e(  17) =    15.06337 eV ==== 
     psi = 0.083*[#   6]+0.083*[#   7]+0.083*[#   9]+0.083*[#  15]+0.083*[#  16]
          +0.083*[#  18]+0.083*[#  24]+0.083*[#  25]+0.083*[#  27]+0.083*[#  33]
          +0.083*[#  34]+0.083*[#  36]
    |psi|^2 = 0.999
==== e(  18) =    15.06337 eV ==== 
     psi = 0.083*[#   6]+0.083*[#   7]+0.083*[#   9]+0.083*[#  15]+0.083*[#  16]
          +0.083*[#  18]+0.083*[#  24]+0.083*[#  25]+0.083*[#  27]+0.083*[#  33]
          +0.083*[#  34]+0.083*[#  36]
    |psi|^2 = 0.999
==== e(  19) =    15.62944 eV ==== 
     psi = 0.125*[#  32]+0.125*[#  17]+0.125*[#  26]+0.125*[#  14]+0.125*[#  23]
          +0.125*[#  35]+0.124*[#   5]+0.124*[#   8]
    |psi|^2 = 0.999
==== e(  20) =    15.96575 eV ==== 
     psi = 0.126*[#   5]+0.126*[#   8]+0.125*[#  35]+0.125*[#  14]+0.125*[#  23]
          +0.125*[#  17]+0.125*[#  26]+0.124*[#  32]
    |psi|^2 = 0.999
==== e(  21) =    17.05415 eV ==== 
     psi = 0.166*[#  15]+0.166*[#  18]+0.166*[#  25]+0.166*[#  27]+0.166*[#  33]
          +0.166*[#  34]
    |psi|^2 = 0.999
==== e(  22) =    17.05576 eV ==== 
     psi = 0.167*[#   6]+0.167*[#   7]+0.167*[#   9]+0.166*[#  16]+0.166*[#  24]
          +0.166*[#  36]
    |psi|^2 = 0.999
==== e(  23) =    23.56662 eV ==== 
     psi = 0.308*[#  10]+0.308*[#  19]+0.308*[#  28]+0.014*[#  35]+0.011*[#  14]
          +0.011*[#  23]+0.007*[#  17]+0.007*[#  26]+0.005*[#  32]+0.001*[#  11]
          +0.001*[#  13]+0.001*[#  20]+0.001*[#  21]+0.001*[#  30]+0.001*[#  31]
          
    |psi|^2 = 0.985
==== e(  24) =    23.56749 eV ==== 
     psi = 0.462*[#   1]+0.154*[#  10]+0.154*[#  19]+0.154*[#  28]+0.014*[#   5]
          +0.014*[#   8]+0.009*[#  32]+0.007*[#  17]+0.007*[#  26]+0.002*[#  14]
          +0.002*[#  23]+0.001*[#   2]+0.001*[#   3]+0.001*[#   4]+0.001*[#  12]
          +0.001*[#  22]+0.001*[#  29]
    |psi|^2 = 0.985

 k =   0.0000000000  0.1428571429  0.1428571429
==== e(   1) =     7.40774 eV ==== 
     psi = 0.145*[#   1]+0.145*[#  10]+0.145*[#  19]+0.145*[#  28]+0.035*[#   2]
          +0.035*[#   3]+0.035*[#   4]+0.035*[#  11]+0.035*[#  12]+0.035*[#  13]
          +0.035*[#  20]+0.035*[#  21]+0.035*[#  22]+0.035*[#  29]+0.035*[#  30]
          +0.035*[#  31]
    |psi|^2 = 0.999
==== e(   2) =    10.30772 eV ==== 
     psi = 0.206*[#  32]+0.167*[#  17]+0.167*[#  26]+0.091*[#  14]+0.091*[#  23]
          +0.059*[#   5]+0.059*[#   8]+0.053*[#  35]+0.035*[#   1]+0.011*[#  10]
          +0.011*[#  19]+0.011*[#  28]+0.006*[#  12]+0.006*[#  22]+0.006*[#  29]
          +0.003*[#  11]+0.003*[#  13]+0.003*[#  20]+0.003*[#  21]+0.003*[#  30]
          +0.003*[#  31]
    |psi|^2 = 1.000
==== e(   3) =    10.30823 eV ==== 
     psi = 0.169*[#  35]+0.162*[#   5]+0.162*[#   8]+0.132*[#  14]+0.132*[#  23]
          +0.058*[#  17]+0.058*[#  26]+0.023*[#  10]+0.023*[#  19]+0.023*[#  28]
          +0.020*[#  32]+0.006*[#   2]+0.006*[#   3]+0.006*[#   4]+0.003*[#  11]
          +0.003*[#  13]+0.003*[#  20]+0.003*[#  21]+0.003*[#  30]+0.003*[#  31]
          
    |psi|^2 = 1.000
==== e(   4) =    10.34570 eV ==== 
     psi = 0.105*[#   5]+0.105*[#   8]+0.105*[#  35]+0.104*[#  14]+0.104*[#  23]
          +0.102*[#  17]+0.102*[#  26]+0.101*[#  32]+0.012*[#  10]+0.012*[#  19]
          +0.012*[#  28]+0.012*[#   1]+0.010*[#   6]+0.010*[#   7]+0.010*[#   9]
          +0.010*[#  15]+0.010*[#  16]+0.010*[#  18]+0.010*[#  24]+0.010*[#  25]
          +0.010*[#  27]+0.010*[#  33]+0.010*[#  34]+0.010*[#  36]
    |psi|^2 = 0.999
==== e(   5) =    10.71397 eV ==== 
     psi = 0.089*[#  16]+0.089*[#  24]+0.089*[#  36]+0.082*[#  15]+0.082*[#  18]
          +0.082*[#  25]+0.082*[#  27]+0.082*[#  33]+0.082*[#  34]+0.076*[#   6]
          +0.076*[#   7]+0.076*[#   9]+0.002*[#   2]+0.002*[#   3]+0.002*[#   4]
          +0.002*[#  12]+0.002*[#  22]+0.002*[#  29]
    |psi|^2 = 0.999
==== e(   6) =    10.71404 eV ==== 
     psi = 0.089*[#   6]+0.089*[#   7]+0.089*[#   9]+0.082*[#  15]+0.082*[#  18]
          +0.082*[#  25]+0.082*[#  27]+0.082*[#  33]+0.082*[#  34]+0.076*[#  16]
          +0.076*[#  24]+0.076*[#  36]+0.002*[#  11]+0.002*[#  13]+0.002*[#  20]
          +0.002*[#  21]+0.002*[#  30]+0.002*[#  31]
    |psi|^2 = 0.999
==== e(   7) =    10.80454 eV ==== 
     psi = 0.072*[#  15]+0.072*[#  18]+0.072*[#  24]+0.072*[#  25]+0.072*[#  27]
          +0.072*[#  33]+0.072*[#  34]+0.072*[#   6]+0.072*[#  16]+0.072*[#   7]
          +0.072*[#   9]+0.072*[#  36]+0.014*[#   5]+0.014*[#   8]+0.014*[#  14]
          +0.014*[#  17]+0.014*[#  23]+0.014*[#  26]+0.014*[#  32]+0.014*[#  35]
          +0.002*[#   2]+0.002*[#   3]+0.002*[#   4]+0.002*[#  11]+0.002*[#  12]
          +0.002*[#  13]+0.002*[#  20]+0.002*[#  21]+0.002*[#  22]+0.002*[#  29]
          +0.002*[#  30]+0.002*[#  31]
    |psi|^2 = 0.999
==== e(   8) =    12.85385 eV ==== 
     psi = 0.083*[#  16]+0.083*[#  24]+0.083*[#  36]+0.083*[#   6]+0.083*[#   7]
          +0.083*[#   9]+0.083*[#  15]+0.083*[#  18]+0.083*[#  25]+0.083*[#  27]
          +0.083*[#  33]+0.083*[#  34]
    |psi|^2 = 0.999
==== e(   9) =    13.26810 eV ==== 
     psi = 0.083*[#  16]+0.083*[#  24]+0.083*[#  36]+0.083*[#   6]+0.083*[#   7]
          +0.083*[#   9]+0.083*[#  15]+0.083*[#  18]+0.083*[#  25]+0.083*[#  27]
          +0.083*[#  33]+0.083*[#  34]
    |psi|^2 = 1.000
==== e(  10) =    13.31231 eV ==== 
     psi = 0.081*[#  16]+0.081*[#  24]+0.081*[#  36]+0.081*[#   6]+0.081*[#   7]
          +0.081*[#   9]+0.081*[#  15]+0.081*[#  18]+0.081*[#  25]+0.081*[#  27]
          +0.081*[#  33]+0.081*[#  34]+0.003*[#   5]+0.003*[#   8]+0.003*[#  14]
          +0.003*[#  17]+0.003*[#  23]+0.003*[#  26]+0.003*[#  32]+0.003*[#  35]
          
    |psi|^2 = 1.000
==== e(  11) =    14.85605 eV ==== 
     psi = 0.125*[#  17]+0.125*[#  26]+0.125*[#  32]+0.125*[#  14]+0.125*[#  23]
          +0.125*[#   5]+0.125*[#   8]+0.125*[#  35]
    |psi|^2 = 0.999
==== e(  12) =    15.12306 eV ==== 
     psi = 0.122*[#  32]+0.122*[#  17]+0.122*[#  26]+0.122*[#  14]+0.122*[#  23]
          +0.122*[#  35]+0.122*[#   5]+0.122*[#   8]+0.002*[#  16]+0.002*[#  24]
          +0.002*[#  36]+0.002*[#   6]+0.002*[#   7]+0.002*[#   9]+0.002*[#  15]
          +0.002*[#  18]+0.002*[#  25]+0.002*[#  27]+0.002*[#  33]+0.002*[#  34]
          
    |psi|^2 = 1.000
==== e(  13) =    15.30506 eV ==== 
     psi = 0.112*[#  15]+0.112*[#  18]+0.112*[#  25]+0.112*[#  27]+0.112*[#  33]
          +0.112*[#  34]+0.023*[#  35]+0.019*[#  14]+0.019*[#  23]+0.018*[#  12]
          +0.018*[#  22]+0.018*[#  29]+0.016*[#  11]+0.016*[#  13]+0.016*[#  20]
          +0.016*[#  21]+0.016*[#  30]+0.016*[#  31]+0.014*[#  10]+0.014*[#  19]
          +0.014*[#  28]+0.014*[#   2]+0.014*[#   3]+0.014*[#   4]+0.012*[#  17]
          +0.012*[#  26]+0.008*[#  32]
    |psi|^2 = 0.998
==== e(  14) =    15.30625 eV ==== 
     psi = 0.112*[#   6]+0.112*[#   7]+0.112*[#   9]+0.111*[#  16]+0.111*[#  24]
          +0.111*[#  36]+0.024*[#   5]+0.024*[#   8]+0.022*[#   1]+0.018*[#   2]
          +0.018*[#   3]+0.018*[#   4]+0.016*[#  11]+0.016*[#  13]+0.016*[#  20]
          +0.016*[#  21]+0.016*[#  30]+0.016*[#  31]+0.015*[#  32]+0.014*[#  12]
          +0.014*[#  22]+0.014*[#  29]+0.012*[#  17]+0.012*[#  26]+0.007*[#  10]
          +0.007*[#  19]+0.007*[#  28]+0.004*[#  14]+0.004*[#  23]
    |psi|^2 = 0.998
==== e(  15) =    15.31010 eV ==== 
     psi = 0.069*[#  15]+0.069*[#  18]+0.069*[#  25]+0.069*[#  27]+0.069*[#  33]
          +0.069*[#  34]+0.068*[#   6]+0.068*[#   7]+0.068*[#   9]+0.068*[#  16]
          +0.068*[#  24]+0.068*[#  36]+0.015*[#   2]+0.015*[#   3]+0.015*[#   4]
          +0.015*[#  11]+0.015*[#  12]+0.015*[#  13]+0.015*[#  20]+0.015*[#  21]
          +0.015*[#  22]+0.015*[#  29]+0.015*[#  30]+0.015*[#  31]
    |psi|^2 = 0.998
==== e(  16) =    16.10421 eV ==== 
     psi = 0.125*[#  35]+0.125*[#  14]+0.125*[#  23]+0.124*[#   5]+0.124*[#   8]
          +0.124*[#  17]+0.124*[#  26]+0.124*[#  32]
    |psi|^2 = 0.999
==== e(  17) =    16.32117 eV ==== 
     psi = 0.205*[#  35]+0.167*[#  14]+0.167*[#  23]+0.090*[#  17]+0.090*[#  26]
          +0.076*[#   5]+0.076*[#   8]+0.052*[#  32]+0.006*[#  15]+0.006*[#  18]
          +0.006*[#  25]+0.006*[#  27]+0.006*[#  33]+0.006*[#  34]+0.004*[#   2]
          +0.004*[#   3]+0.004*[#   4]+0.003*[#  11]+0.003*[#  13]+0.003*[#  20]
          +0.003*[#  21]+0.003*[#  30]+0.003*[#  31]+0.002*[#  12]+0.002*[#  22]
          +0.002*[#  29]
    |psi|^2 = 0.999
==== e(  18) =    16.32161 eV ==== 
     psi = 0.179*[#  32]+0.156*[#   5]+0.156*[#   8]+0.141*[#  17]+0.141*[#  26]
          +0.064*[#  14]+0.064*[#  23]+0.025*[#  35]+0.006*[#   6]+0.006*[#   7]
          +0.006*[#   9]+0.006*[#  16]+0.006*[#  24]+0.006*[#  36]+0.004*[#  12]
          +0.004*[#  22]+0.004*[#  29]+0.003*[#  11]+0.003*[#  13]+0.003*[#  20]
          +0.003*[#  21]+0.003*[#  30]+0.003*[#  31]+0.002*[#   2]+0.002*[#   3]
          +0.002*[#   4]+0.001*[#   1]
    |psi|^2 = 0.999
==== e(  19) =    16.73212 eV ==== 
     psi = 0.089*[#  16]+0.089*[#  24]+0.089*[#  36]+0.084*[#  15]+0.084*[#  18]
          +0.084*[#  25]+0.084*[#  27]+0.084*[#  33]+0.084*[#  34]+0.074*[#   6]
          +0.074*[#   7]+0.074*[#   9]
    |psi|^2 = 0.999
==== e(  20) =    16.73227 eV ==== 
     psi = 0.091*[#   6]+0.091*[#   7]+0.091*[#   9]+0.083*[#  15]+0.083*[#  18]
          +0.083*[#  25]+0.083*[#  27]+0.083*[#  33]+0.083*[#  34]+0.076*[#  16]
          +0.076*[#  24]+0.076*[#  36]
    |psi|^2 = 0.999
==== e(  21) =    16.84658 eV ==== 
     psi = 0.084*[#   6]+0.084*[#   7]+0.084*[#   9]+0.084*[#  16]+0.084*[#  24]
          +0.084*[#  36]+0.082*[#  15]+0.082*[#  18]+0.082*[#  25]+0.082*[#  27]
          +0.082*[#  33]+0.082*[#  34]
    |psi|^2 = 0.999
==== e(  22) =    18.74887 eV ==== 
     psi = 0.053*[#   2]+0.053*[#   3]+0.053*[#   4]+0.048*[#  15]+0.048*[#  18]
          +0.048*[#  25]+0.048*[#  27]+0.048*[#  33]+0.048*[#  34]+0.044*[#  11]
          +0.044*[#  13]+0.044*[#  20]+0.044*[#  21]+0.044*[#  30]+0.044*[#  31]
          +0.041*[#  10]+0.041*[#  19]+0.041*[#  28]+0.035*[#  12]+0.035*[#  22]
          +0.035*[#  29]+0.011*[#  35]+0.009*[#  14]+0.009*[#  23]+0.005*[#   5]
          +0.005*[#   8]+0.005*[#  17]+0.005*[#  26]+0.003*[#  32]
    |psi|^2 = 0.994
==== e(  23) =    18.74949 eV ==== 
     psi = 0.061*[#   1]+0.053*[#  12]+0.053*[#  22]+0.053*[#  29]+0.048*[#   6]
          +0.048*[#   7]+0.048*[#   9]+0.048*[#  16]+0.048*[#  24]+0.048*[#  36]
          +0.044*[#  11]+0.044*[#  13]+0.044*[#  20]+0.044*[#  21]+0.044*[#  30]
          +0.044*[#  31]+0.035*[#   2]+0.035*[#   3]+0.035*[#   4]+0.020*[#  10]
          +0.020*[#  19]+0.020*[#  28]+0.010*[#  32]+0.008*[#  17]+0.008*[#  26]
          +0.008*[#   5]+0.008*[#   8]+0.004*[#  14]+0.004*[#  23]+0.002*[#  35]
          
    |psi|^2 = 0.994
==== e(  24) =    20.78820 eV ==== 
     psi = 0.067*[#   2]+0.067*[#   3]+0.067*[#   4]+0.067*[#  11]+0.067*[#  12]
          +0.067*[#  13]+0.067*[#  20]+0.067*[#  21]+0.067*[#  22]+0.067*[#  29]
          +0.067*[#  30]+0.067*[#  31]+0.015*[#   6]+0.015*[#   7]+0.015*[#   9]
          +0.015*[#  15]+0.015*[#  16]+0.015*[#  18]+0.015*[#  24]+0.015*[#  25]
          +0.015*[#  27]+0.015*[#  33]+0.015*[#  34]+0.015*[#  36]
    |psi|^2 = 0.984

 k =   0.0000000000  0.1428571429  0.2857142857
==== e(   1) =     8.13326 eV ==== 
     psi = 0.099*[#   1]+0.099*[#  10]+0.099*[#  19]+0.099*[#  28]+0.049*[#   2]
          +0.049*[#   3]+0.049*[#   4]+0.049*[#  11]+0.049*[#  12]+0.049*[#  13]
          +0.049*[#  20]+0.049*[#  21]+0.049*[#  22]+0.049*[#  29]+0.049*[#  30]
          +0.049*[#  31]
    |psi|^2 = 0.999
==== e(   2) =    10.46493 eV ==== 
     psi = 0.088*[#  17]+0.088*[#  26]+0.088*[#  32]+0.088*[#  14]+0.088*[#  23]
          +0.088*[#   5]+0.088*[#   8]+0.088*[#  35]+0.029*[#   1]+0.029*[#  10]
          +0.029*[#  19]+0.029*[#  28]+0.015*[#   2]+0.015*[#   3]+0.015*[#   4]
          +0.015*[#  11]+0.015*[#  12]+0.015*[#  13]+0.015*[#  20]+0.015*[#  21]
          +0.015*[#  22]+0.015*[#  29]+0.015*[#  30]+0.015*[#  31]
    |psi|^2 = 0.999
==== e(   3) =    10.74532 eV ==== 
     psi = 0.086*[#  32]+0.086*[#  17]+0.086*[#  26]+0.085*[#  14]+0.085*[#  23]
          +0.085*[#  35]+0.085*[#   5]+0.085*[#   8]+0.022*[#   6]+0.022*[#   7]
          +0.022*[#   9]+0.023*[#  15]+0.023*[#  16]+0.023*[#  18]+0.023*[#  24]
          +0.023*[#  25]+0.023*[#  27]+0.023*[#  33]+0.023*[#  34]+0.023*[#  36]
          +0.009*[#   1]+0.009*[#  10]+0.009*[#  19]+0.009*[#  28]
    |psi|^2 = 0.999
==== e(   4) =    10.83057 eV ==== 
     psi = 0.113*[#   5]+0.113*[#   8]+0.113*[#  35]+0.113*[#  14]+0.113*[#  23]
          +0.112*[#  17]+0.112*[#  26]+0.112*[#  32]+0.012*[#  10]+0.012*[#  19]
          +0.012*[#  28]+0.012*[#   1]+0.004*[#   2]+0.004*[#   3]+0.004*[#   4]
          +0.004*[#  11]+0.004*[#  12]+0.004*[#  13]+0.004*[#  20]+0.004*[#  21]
          +0.004*[#  22]+0.004*[#  29]+0.004*[#  30]+0.004*[#  31]
    |psi|^2 = 1.000
==== e(   5) =    11.00342 eV ==== 
     psi = 0.082*[#  15]+0.082*[#  18]+0.082*[#  27]+0.082*[#  33]+0.082*[#  34]
          +0.082*[#   6]+0.082*[#  16]+0.082*[#   7]+0.082*[#   9]+0.082*[#  24]
          +0.082*[#  25]+0.082*[#  36]
    |psi|^2 = 0.999
==== e(   6) =    11.17261 eV ==== 
     psi = 0.080*[#  15]+0.080*[#  18]+0.080*[#  27]+0.080*[#  33]+0.080*[#  34]
          +0.080*[#   6]+0.080*[#  16]+0.080*[#   7]+0.080*[#   9]+0.080*[#  24]
          +0.080*[#  25]+0.080*[#  36]+0.003*[#   2]+0.003*[#   3]+0.003*[#   4]
          +0.003*[#  11]+0.003*[#  12]+0.003*[#  13]+0.003*[#  20]+0.003*[#  21]
          +0.003*[#  22]+0.003*[#  29]+0.003*[#  30]+0.003*[#  31]
    |psi|^2 = 0.999
==== e(   7) =    11.31000 eV ==== 
     psi = 0.057*[#  15]+0.057*[#  18]+0.057*[#  24]+0.057*[#  25]+0.057*[#  27]
          +0.057*[#  33]+0.057*[#  34]+0.057*[#   6]+0.057*[#  16]+0.057*[#   7]
          +0.057*[#   9]+0.057*[#  36]+0.032*[#   5]+0.032*[#   8]+0.032*[#  14]
          +0.032*[#  17]+0.032*[#  23]+0.032*[#  26]+0.032*[#  32]+0.032*[#  35]
          +0.005*[#   2]+0.005*[#   3]+0.005*[#   4]+0.005*[#  11]+0.005*[#  12]
          +0.005*[#  13]+0.005*[#  20]+0.005*[#  21]+0.005*[#  22]+0.005*[#  29]
          +0.005*[#  30]+0.005*[#  31]
    |psi|^2 = 0.999
==== e(   8) =    12.49907 eV ==== 
     psi = 0.083*[#  16]+0.083*[#  24]+0.083*[#  36]+0.083*[#   6]+0.083*[#   7]
          +0.083*[#   9]+0.083*[#  15]+0.083*[#  18]+0.083*[#  25]+0.083*[#  27]
          +0.083*[#  33]+0.083*[#  34]
    |psi|^2 = 0.999
==== e(   9) =    13.54917 eV ==== 
     psi = 0.072*[#  16]+0.072*[#  24]+0.072*[#  36]+0.071*[#  15]+0.071*[#  18]
          +0.071*[#  25]+0.071*[#  27]+0.071*[#  33]+0.071*[#  34]+0.071*[#   6]
          +0.071*[#   7]+0.071*[#   9]+0.017*[#   5]+0.017*[#   8]+0.017*[#  14]
          +0.017*[#  17]+0.017*[#  23]+0.017*[#  26]+0.017*[#  32]+0.017*[#  35]
          
    |psi|^2 = 0.999
==== e(  10) =    13.61938 eV ==== 
     psi = 0.083*[#  16]+0.083*[#  24]+0.083*[#  36]+0.083*[#   6]+0.083*[#   7]
          +0.083*[#   9]+0.083*[#  15]+0.083*[#  18]+0.083*[#  25]+0.083*[#  27]
          +0.083*[#  33]+0.083*[#  34]
    |psi|^2 = 1.000
==== e(  11) =    13.84890 eV ==== 
     psi = 0.062*[#  15]+0.062*[#  18]+0.062*[#  25]+0.062*[#  27]+0.062*[#  33]
          +0.062*[#  34]+0.062*[#   6]+0.062*[#   7]+0.062*[#   9]+0.061*[#  16]
          +0.061*[#  24]+0.061*[#  36]+0.012*[#   1]+0.012*[#  10]+0.012*[#  19]
          +0.012*[#  28]+0.011*[#   2]+0.011*[#   3]+0.011*[#   4]+0.011*[#  11]
          +0.011*[#  12]+0.011*[#  13]+0.011*[#  20]+0.011*[#  21]+0.011*[#  22]
          +0.011*[#  29]+0.011*[#  30]+0.011*[#  31]+0.009*[#  14]+0.009*[#  17]
          +0.009*[#  23]+0.009*[#  26]+0.009*[#  32]+0.009*[#  35]+0.009*[#   5]
          +0.009*[#   8]
    |psi|^2 = 0.998
==== e(  12) =    14.13083 eV ==== 
     psi = 0.072*[#   6]+0.072*[#   7]+0.072*[#   9]+0.072*[#  15]+0.072*[#  18]
          +0.072*[#  25]+0.072*[#  27]+0.072*[#  33]+0.072*[#  34]+0.072*[#  16]
          +0.072*[#  24]+0.072*[#  36]+0.011*[#   2]+0.011*[#   3]+0.011*[#   4]
          +0.011*[#  11]+0.011*[#  12]+0.011*[#  13]+0.011*[#  20]+0.011*[#  21]
          +0.011*[#  22]+0.011*[#  29]+0.011*[#  30]+0.011*[#  31]
    |psi|^2 = 0.998
==== e(  13) =    14.23175 eV ==== 
     psi = 0.039*[#   6]+0.039*[#   7]+0.039*[#   9]+0.039*[#  16]+0.039*[#  24]
          +0.039*[#  36]+0.038*[#  15]+0.038*[#  18]+0.038*[#  25]+0.038*[#  27]
          +0.038*[#  33]+0.038*[#  34]+0.025*[#  14]+0.025*[#  17]+0.025*[#  23]
          +0.025*[#  26]+0.025*[#  35]+0.025*[#   5]+0.025*[#   8]+0.025*[#  32]
          +0.021*[#   1]+0.021*[#  10]+0.021*[#  19]+0.021*[#  28]+0.021*[#   2]
          +0.021*[#   3]+0.021*[#   4]+0.021*[#  11]+0.021*[#  12]+0.021*[#  13]
          +0.021*[#  20]+0.021*[#  21]+0.021*[#  22]+0.021*[#  29]+0.021*[#  30]
          +0.021*[#  31]
    |psi|^2 = 0.997
==== e(  14) =    14.52516 eV ==== 
     psi = 0.118*[#  32]+0.117*[#  17]+0.117*[#  26]+0.117*[#   5]+0.117*[#   8]
          +0.117*[#  14]+0.117*[#  23]+0.117*[#  35]+0.004*[#   6]+0.004*[#   7]
          +0.004*[#   9]+0.004*[#  15]+0.004*[#  16]+0.004*[#  18]+0.004*[#  24]
          +0.004*[#  25]+0.004*[#  27]+0.004*[#  33]+0.004*[#  34]+0.004*[#  36]
          +0.001*[#   1]+0.001*[#  10]+0.001*[#  19]+0.001*[#  28]
    |psi|^2 = 0.999
==== e(  15) =    15.36215 eV ==== 
     psi = 0.115*[#  32]+0.115*[#  17]+0.115*[#  26]+0.114*[#  14]+0.114*[#  23]
          +0.114*[#   5]+0.114*[#   8]+0.114*[#  35]+0.007*[#   6]+0.007*[#   7]
          +0.007*[#   9]+0.007*[#  15]+0.007*[#  16]+0.007*[#  18]+0.007*[#  24]
          +0.007*[#  25]+0.007*[#  27]+0.007*[#  33]+0.007*[#  34]+0.007*[#  36]
          
    |psi|^2 = 0.999
==== e(  16) =    15.50728 eV ==== 
     psi = 0.124*[#  35]+0.124*[#  14]+0.124*[#  23]+0.123*[#   5]+0.123*[#   8]
          +0.123*[#  17]+0.123*[#  26]+0.123*[#  32]+0.002*[#   1]+0.002*[#  10]
          +0.002*[#  19]+0.002*[#  28]
    |psi|^2 = 0.999
==== e(  17) =    15.69871 eV ==== 
     psi = 0.117*[#   5]+0.117*[#   8]+0.116*[#  17]+0.116*[#  26]+0.116*[#  32]
          +0.116*[#  14]+0.116*[#  23]+0.116*[#  35]+0.003*[#   6]+0.003*[#   7]
          +0.003*[#   9]+0.003*[#  15]+0.003*[#  16]+0.003*[#  18]+0.003*[#  24]
          +0.003*[#  25]+0.003*[#  27]+0.003*[#  33]+0.003*[#  34]+0.003*[#  36]
          +0.002*[#   2]+0.002*[#   3]+0.002*[#   4]+0.002*[#  11]+0.002*[#  12]
          +0.002*[#  13]+0.002*[#  20]+0.002*[#  21]+0.002*[#  22]+0.002*[#  29]
          +0.002*[#  30]+0.002*[#  31]
    |psi|^2 = 0.999
==== e(  18) =    15.96002 eV ==== 
     psi = 0.083*[#   6]+0.083*[#   7]+0.083*[#   9]+0.083*[#  15]+0.083*[#  16]
          +0.083*[#  18]+0.083*[#  24]+0.083*[#  25]+0.083*[#  27]+0.083*[#  33]
          +0.083*[#  34]+0.083*[#  36]
    |psi|^2 = 0.999
==== e(  19) =    15.96173 eV ==== 
     psi = 0.109*[#   5]+0.109*[#   8]+0.108*[#  14]+0.108*[#  17]+0.108*[#  23]
          +0.108*[#  26]+0.108*[#  32]+0.108*[#  35]+0.007*[#   2]+0.007*[#   3]
          +0.007*[#   4]+0.007*[#  11]+0.007*[#  12]+0.007*[#  13]+0.007*[#  20]
          +0.007*[#  21]+0.007*[#  22]+0.007*[#  29]+0.007*[#  30]+0.007*[#  31]
          +0.005*[#   1]+0.005*[#  10]+0.005*[#  19]+0.005*[#  28]+0.002*[#   6]
          +0.002*[#   7]+0.002*[#   9]+0.002*[#  15]+0.002*[#  16]+0.002*[#  18]
          +0.002*[#  24]+0.002*[#  25]+0.002*[#  27]+0.002*[#  33]+0.002*[#  34]
          +0.002*[#  36]
    |psi|^2 = 0.998
==== e(  20) =    16.72821 eV ==== 
     psi = 0.092*[#  15]+0.092*[#  18]+0.092*[#  25]+0.092*[#  27]+0.092*[#  33]
          +0.092*[#  34]+0.075*[#   6]+0.075*[#   7]+0.075*[#   9]+0.074*[#  16]
          +0.074*[#  24]+0.074*[#  36]
    |psi|^2 = 0.999
==== e(  21) =    16.74010 eV ==== 
     psi = 0.092*[#  16]+0.092*[#  24]+0.092*[#  36]+0.092*[#   6]+0.092*[#   7]
          +0.092*[#   9]+0.074*[#  15]+0.074*[#  18]+0.074*[#  25]+0.074*[#  27]
          +0.074*[#  33]+0.074*[#  34]
    |psi|^2 = 0.999
==== e(  22) =    17.21749 eV ==== 
     psi = 0.042*[#   6]+0.042*[#   7]+0.042*[#   9]+0.042*[#  15]+0.042*[#  16]
          +0.042*[#  18]+0.042*[#  24]+0.042*[#  25]+0.042*[#  27]+0.042*[#  33]
          +0.042*[#  34]+0.042*[#  36]+0.027*[#   5]+0.027*[#   8]+0.027*[#  14]
          +0.027*[#  17]+0.027*[#  23]+0.027*[#  26]+0.027*[#  32]+0.027*[#  35]
          +0.018*[#   2]+0.018*[#   3]+0.018*[#   4]+0.018*[#  11]+0.018*[#  12]
          +0.018*[#  13]+0.018*[#  20]+0.018*[#  21]+0.018*[#  22]+0.018*[#  29]
          +0.018*[#  30]+0.018*[#  31]+0.016*[#   1]+0.016*[#  10]+0.016*[#  19]
          +0.016*[#  28]
    |psi|^2 = 0.997
==== e(  23) =    20.36662 eV ==== 
     psi = 0.059*[#   1]+0.059*[#  10]+0.059*[#  19]+0.059*[#  28]+0.042*[#   2]
          +0.042*[#   3]+0.042*[#   4]+0.042*[#  11]+0.042*[#  12]+0.042*[#  13]
          +0.042*[#  20]+0.042*[#  21]+0.042*[#  22]+0.042*[#  29]+0.042*[#  30]
          +0.042*[#  31]+0.018*[#   6]+0.018*[#   7]+0.018*[#   9]+0.018*[#  15]
          +0.018*[#  16]+0.018*[#  18]+0.018*[#  24]+0.018*[#  25]+0.018*[#  27]
          +0.018*[#  33]+0.018*[#  34]+0.018*[#  36]+0.006*[#   5]+0.006*[#   8]
          +0.006*[#  14]+0.006*[#  17]+0.006*[#  23]+0.006*[#  26]+0.006*[#  32]
          +0.006*[#  35]
    |psi|^2 = 0.993
==== e(  24) =    22.52230 eV ==== 
     psi = 0.071*[#   2]+0.071*[#   3]+0.071*[#   4]+0.071*[#  11]+0.071*[#  12]
          +0.071*[#  13]+0.071*[#  20]+0.071*[#  21]+0.071*[#  22]+0.071*[#  29]
          +0.071*[#  30]+0.071*[#  31]+0.011*[#   6]+0.011*[#   7]+0.011*[#   9]
          +0.011*[#  15]+0.011*[#  16]+0.011*[#  18]+0.011*[#  24]+0.011*[#  25]
          +0.011*[#  27]+0.011*[#  33]+0.011*[#  34]+0.011*[#  36]
    |psi|^2 = 0.982

 k =   0.0000000000  0.1428571429  0.4285714286
==== e(   1) =     9.19758 eV ==== 
     psi = 0.073*[#   1]+0.073*[#  10]+0.073*[#  19]+0.073*[#  28]+0.053*[#   2]
          +0.053*[#   3]+0.053*[#   4]+0.053*[#  11]+0.053*[#  12]+0.053*[#  13]
          +0.053*[#  20]+0.053*[#  21]+0.053*[#  22]+0.053*[#  29]+0.053*[#  30]
          +0.053*[#  31]+0.007*[#   5]+0.007*[#   8]+0.007*[#  14]+0.007*[#  17]
          +0.007*[#  23]+0.007*[#  26]+0.007*[#  32]+0.007*[#  35]+0.002*[#   6]
          +0.002*[#   7]+0.002*[#   9]+0.002*[#  15]+0.002*[#  16]+0.002*[#  18]
          +0.002*[#  24]+0.002*[#  25]+0.002*[#  27]+0.002*[#  33]+0.002*[#  34]
          +0.002*[#  36]
    |psi|^2 = 0.999
==== e(   2) =    10.18892 eV ==== 
     psi = 0.051*[#   1]+0.051*[#  10]+0.051*[#  19]+0.051*[#  28]+0.040*[#   2]
          +0.040*[#   3]+0.040*[#   4]+0.040*[#  11]+0.040*[#  12]+0.040*[#  13]
          +0.040*[#  20]+0.040*[#  21]+0.040*[#  22]+0.040*[#  29]+0.040*[#  30]
          +0.040*[#  31]+0.037*[#   5]+0.037*[#   8]+0.037*[#  14]+0.037*[#  17]
          +0.037*[#  23]+0.037*[#  26]+0.037*[#  32]+0.037*[#  35]+0.002*[#   6]
          +0.002*[#   7]+0.002*[#   9]+0.002*[#  15]+0.002*[#  16]+0.002*[#  18]
          +0.002*[#  24]+0.002*[#  25]+0.002*[#  27]+0.002*[#  33]+0.002*[#  34]
          +0.002*[#  36]
    |psi|^2 = 0.999
==== e(   3) =    11.32763 eV ==== 
     psi = 0.098*[#  32]+0.098*[#  17]+0.098*[#  26]+0.097*[#  14]+0.097*[#  23]
          +0.097*[#  35]+0.096*[#   5]+0.096*[#   8]+0.015*[#   6]+0.015*[#   7]
          +0.015*[#   9]+0.015*[#  15]+0.015*[#  16]+0.015*[#  18]+0.015*[#  24]
          +0.015*[#  25]+0.015*[#  27]+0.015*[#  33]+0.015*[#  34]+0.015*[#  36]
          +0.004*[#   1]+0.003*[#  10]+0.003*[#  19]+0.003*[#  28]+0.003*[#   2]
          +0.003*[#   3]+0.003*[#   4]+0.003*[#  11]+0.003*[#  12]+0.003*[#  13]
          +0.003*[#  20]+0.003*[#  21]+0.003*[#  22]+0.003*[#  29]+0.003*[#  30]
          +0.003*[#  31]
    |psi|^2 = 0.999
==== e(   4) =    11.41115 eV ==== 
     psi = 0.117*[#   5]+0.117*[#   8]+0.117*[#  35]+0.116*[#  14]+0.116*[#  23]
          +0.116*[#  17]+0.116*[#  26]+0.115*[#  32]+0.005*[#   2]+0.005*[#   3]
          +0.005*[#   4]+0.005*[#  11]+0.005*[#  12]+0.005*[#  13]+0.005*[#  20]
          +0.005*[#  21]+0.005*[#  22]+0.005*[#  29]+0.005*[#  30]+0.005*[#  31]
          +0.003*[#   1]+0.003*[#  10]+0.003*[#  19]+0.003*[#  28]
    |psi|^2 = 1.000
==== e(   5) =    11.44737 eV ==== 
     psi = 0.083*[#  15]+0.083*[#  18]+0.083*[#  25]+0.083*[#  27]+0.083*[#  33]
          +0.083*[#  34]+0.082*[#   6]+0.082*[#   7]+0.082*[#   9]+0.082*[#  16]
          +0.082*[#  24]+0.082*[#  36]
    |psi|^2 = 0.999
==== e(   6) =    11.89751 eV ==== 
     psi = 0.061*[#  15]+0.061*[#  16]+0.061*[#  18]+0.061*[#  24]+0.061*[#  25]
          +0.061*[#  27]+0.061*[#  33]+0.061*[#  34]+0.061*[#  36]+0.061*[#   6]
          +0.061*[#   7]+0.061*[#   9]+0.022*[#   5]+0.022*[#   8]+0.022*[#  14]
          +0.022*[#  17]+0.022*[#  23]+0.022*[#  26]+0.022*[#  32]+0.022*[#  35]
          +0.007*[#   2]+0.007*[#   3]+0.007*[#   4]+0.007*[#  11]+0.007*[#  12]
          +0.007*[#  13]+0.007*[#  20]+0.007*[#  21]+0.007*[#  22]+0.007*[#  29]
          +0.007*[#  30]+0.007*[#  31]+0.003*[#   1]+0.003*[#  10]+0.003*[#  19]
          +0.003*[#  28]
    |psi|^2 = 0.999
==== e(   7) =    11.92072 eV ==== 
     psi = 0.078*[#  15]+0.078*[#  18]+0.078*[#  25]+0.078*[#  27]+0.078*[#  33]
          +0.078*[#  34]+0.078*[#  16]+0.078*[#  24]+0.078*[#  36]+0.078*[#   6]
          +0.078*[#   7]+0.078*[#   9]+0.005*[#   2]+0.005*[#   3]+0.005*[#   4]
          +0.005*[#  11]+0.005*[#  12]+0.005*[#  13]+0.005*[#  20]+0.005*[#  21]
          +0.005*[#  22]+0.005*[#  29]+0.005*[#  30]+0.005*[#  31]
    |psi|^2 = 0.999
==== e(   8) =    11.97996 eV ==== 
     psi = 0.083*[#  16]+0.083*[#  24]+0.083*[#  36]+0.083*[#   6]+0.083*[#   7]
          +0.083*[#   9]+0.082*[#  15]+0.082*[#  18]+0.082*[#  25]+0.082*[#  27]
          +0.082*[#  33]+0.082*[#  34]
    |psi|^2 = 0.999
==== e(   9) =    12.65092 eV ==== 
     psi = 0.069*[#  15]+0.069*[#  18]+0.069*[#  25]+0.069*[#  27]+0.069*[#  33]
          +0.069*[#  34]+0.069*[#   6]+0.069*[#   7]+0.069*[#   9]+0.069*[#  16]
          +0.069*[#  24]+0.069*[#  36]+0.012*[#   1]+0.012*[#  10]+0.012*[#  19]
          +0.012*[#  28]+0.007*[#   2]+0.007*[#   3]+0.007*[#   4]+0.007*[#  11]
          +0.008*[#  12]+0.007*[#  13]+0.007*[#  20]+0.007*[#  21]+0.008*[#  22]
          +0.008*[#  29]+0.007*[#  30]+0.007*[#  31]+0.005*[#   5]+0.005*[#   8]
          +0.005*[#  14]+0.005*[#  17]+0.005*[#  23]+0.005*[#  26]+0.005*[#  32]
          +0.005*[#  35]
    |psi|^2 = 0.999
==== e(  10) =    12.92955 eV ==== 
     psi = 0.076*[#   6]+0.076*[#   7]+0.076*[#   9]+0.076*[#  15]+0.076*[#  18]
          +0.076*[#  25]+0.076*[#  27]+0.076*[#  33]+0.076*[#  34]+0.076*[#  16]
          +0.076*[#  24]+0.076*[#  36]+0.007*[#   2]+0.007*[#   3]+0.007*[#   4]
          +0.007*[#  11]+0.007*[#  12]+0.007*[#  13]+0.007*[#  20]+0.007*[#  21]
          +0.007*[#  22]+0.007*[#  29]+0.007*[#  30]+0.007*[#  31]
    |psi|^2 = 0.999
==== e(  11) =    13.46761 eV ==== 
     psi = 0.068*[#  14]+0.068*[#  23]+0.069*[#  35]+0.068*[#  17]+0.068*[#  26]
          +0.068*[#  32]+0.068*[#   5]+0.068*[#   8]+0.025*[#   6]+0.025*[#   7]
          +0.025*[#   9]+0.025*[#  15]+0.025*[#  16]+0.025*[#  18]+0.025*[#  24]
          +0.025*[#  25]+0.025*[#  27]+0.025*[#  33]+0.025*[#  34]+0.025*[#  36]
          +0.011*[#   1]+0.011*[#  10]+0.011*[#  19]+0.011*[#  28]+0.010*[#   2]
          +0.010*[#   3]+0.010*[#   4]+0.010*[#  11]+0.010*[#  12]+0.010*[#  13]
          +0.010*[#  20]+0.010*[#  21]+0.010*[#  22]+0.010*[#  29]+0.010*[#  30]
          +0.010*[#  31]
    |psi|^2 = 0.998
==== e(  12) =    13.54173 eV ==== 
     psi = 0.075*[#   5]+0.075*[#   8]+0.075*[#  32]+0.075*[#  17]+0.075*[#  26]
          +0.075*[#  14]+0.075*[#  23]+0.074*[#  35]+0.033*[#  16]+0.033*[#  24]
          +0.033*[#  36]+0.032*[#   6]+0.032*[#   7]+0.032*[#   9]+0.032*[#  15]
          +0.032*[#  18]+0.032*[#  25]+0.032*[#  27]+0.032*[#  33]+0.032*[#  34]
          +0.001*[#   1]+0.001*[#  10]+0.001*[#  19]+0.001*[#  28]
    |psi|^2 = 0.999
==== e(  13) =    14.24140 eV ==== 
     psi = 0.083*[#  16]+0.083*[#  24]+0.083*[#  36]+0.083*[#   6]+0.083*[#   7]
          +0.083*[#   9]+0.083*[#  15]+0.083*[#  18]+0.083*[#  25]+0.083*[#  27]
          +0.083*[#  33]+0.083*[#  34]
    |psi|^2 = 0.999
==== e(  14) =    14.54386 eV ==== 
     psi = 0.068*[#  32]+0.068*[#  17]+0.068*[#  26]+0.067*[#  14]+0.067*[#  23]
          +0.067*[#  35]+0.067*[#   5]+0.067*[#   8]+0.034*[#   6]+0.034*[#   7]
          +0.034*[#   9]+0.034*[#  15]+0.034*[#  16]+0.034*[#  18]+0.034*[#  24]
          +0.034*[#  25]+0.034*[#  27]+0.034*[#  33]+0.034*[#  34]+0.034*[#  36]
          +0.004*[#   2]+0.004*[#   3]+0.004*[#   4]+0.004*[#  11]+0.004*[#  12]
          +0.004*[#  13]+0.004*[#  20]+0.004*[#  21]+0.004*[#  22]+0.004*[#  29]
          +0.004*[#  30]+0.004*[#  31]+0.003*[#   1]+0.003*[#  10]+0.003*[#  19]
          +0.003*[#  28]
    |psi|^2 = 0.999
==== e(  15) =    14.89827 eV ==== 
     psi = 0.121*[#  35]+0.120*[#  14]+0.120*[#  23]+0.119*[#  17]+0.119*[#  26]
          +0.119*[#  32]+0.118*[#   5]+0.118*[#   8]+0.007*[#   1]+0.007*[#  10]
          +0.007*[#  19]+0.007*[#  28]
    |psi|^2 = 0.999
==== e(  16) =    14.99940 eV ==== 
     psi = 0.117*[#   5]+0.117*[#   8]+0.117*[#  32]+0.116*[#  17]+0.116*[#  26]
          +0.115*[#  14]+0.115*[#  23]+0.115*[#  35]+0.005*[#   1]+0.005*[#  10]
          +0.005*[#  19]+0.005*[#  28]+0.003*[#   6]+0.003*[#   7]+0.003*[#   9]
          +0.003*[#  15]+0.003*[#  16]+0.003*[#  18]+0.003*[#  24]+0.003*[#  25]
          +0.003*[#  27]+0.003*[#  33]+0.003*[#  34]+0.003*[#  36]+0.001*[#   2]
          +0.001*[#   3]+0.001*[#   4]+0.001*[#  11]+0.001*[#  12]+0.001*[#  13]
          +0.001*[#  20]+0.001*[#  21]+0.001*[#  22]+0.001*[#  29]+0.001*[#  30]
          +0.001*[#  31]
    |psi|^2 = 0.999
==== e(  17) =    15.05865 eV ==== 
     psi = 0.083*[#   6]+0.083*[#   7]+0.083*[#   9]+0.083*[#  15]+0.083*[#  16]
          +0.083*[#  18]+0.083*[#  24]+0.083*[#  25]+0.083*[#  27]+0.083*[#  33]
          +0.083*[#  34]+0.083*[#  36]
    |psi|^2 = 0.999
==== e(  18) =    15.21007 eV ==== 
     psi = 0.071*[#   5]+0.071*[#   8]+0.071*[#  14]+0.071*[#  17]+0.071*[#  23]
          +0.071*[#  26]+0.071*[#  32]+0.071*[#  35]+0.027*[#   6]+0.027*[#   7]
          +0.027*[#   9]+0.027*[#  16]+0.027*[#  24]+0.027*[#  36]+0.027*[#  15]
          +0.027*[#  18]+0.027*[#  25]+0.027*[#  27]+0.027*[#  33]+0.027*[#  34]
          +0.008*[#   2]+0.008*[#   3]+0.008*[#   4]+0.008*[#  11]+0.008*[#  12]
          +0.008*[#  13]+0.008*[#  20]+0.008*[#  21]+0.008*[#  22]+0.008*[#  29]
          +0.008*[#  30]+0.008*[#  31]+0.005*[#   1]+0.005*[#  10]+0.005*[#  19]
          +0.005*[#  28]
    |psi|^2 = 0.998
==== e(  19) =    15.78428 eV ==== 
     psi = 0.101*[#   5]+0.101*[#   8]+0.101*[#  14]+0.101*[#  17]+0.101*[#  23]
          +0.101*[#  26]+0.101*[#  32]+0.101*[#  35]+0.015*[#   6]+0.015*[#   7]
          +0.015*[#   9]+0.015*[#  15]+0.015*[#  16]+0.015*[#  18]+0.015*[#  24]
          +0.015*[#  25]+0.015*[#  27]+0.015*[#  33]+0.015*[#  34]+0.015*[#  36]
          
    |psi|^2 = 0.999
==== e(  20) =    16.33978 eV ==== 
     psi = 0.074*[#   5]+0.074*[#   8]+0.073*[#  14]+0.073*[#  17]+0.073*[#  23]
          +0.073*[#  26]+0.073*[#  35]+0.073*[#  32]+0.030*[#   6]+0.030*[#   7]
          +0.030*[#   9]+0.030*[#  15]+0.030*[#  16]+0.030*[#  18]+0.030*[#  24]
          +0.030*[#  25]+0.030*[#  27]+0.030*[#  33]+0.030*[#  34]+0.030*[#  36]
          +0.004*[#   2]+0.004*[#   3]+0.004*[#   4]+0.004*[#  11]+0.004*[#  12]
          +0.004*[#  13]+0.004*[#  20]+0.004*[#  21]+0.004*[#  22]+0.004*[#  29]
          +0.004*[#  30]+0.004*[#  31]+0.003*[#   1]+0.003*[#  10]+0.003*[#  19]
          +0.003*[#  28]
    |psi|^2 = 0.999
==== e(  21) =    16.72114 eV ==== 
     psi = 0.143*[#  15]+0.143*[#  18]+0.143*[#  25]+0.143*[#  27]+0.143*[#  33]
          +0.143*[#  34]+0.026*[#   6]+0.026*[#   7]+0.026*[#   9]+0.021*[#  16]
          +0.021*[#  24]+0.021*[#  36]
    |psi|^2 = 0.999
==== e(  22) =    16.72307 eV ==== 
     psi = 0.145*[#  16]+0.145*[#  24]+0.145*[#  36]+0.140*[#   6]+0.140*[#   7]
          +0.140*[#   9]+0.023*[#  15]+0.023*[#  18]+0.023*[#  25]+0.023*[#  27]
          +0.023*[#  33]+0.023*[#  34]
    |psi|^2 = 0.999
==== e(  23) =    21.58519 eV ==== 
     psi = 0.122*[#  10]+0.122*[#  19]+0.122*[#  28]+0.122*[#   1]+0.029*[#   2]
          +0.029*[#   3]+0.029*[#   4]+0.029*[#  11]+0.029*[#  12]+0.029*[#  13]
          +0.029*[#  20]+0.029*[#  21]+0.029*[#  22]+0.029*[#  29]+0.029*[#  30]
          +0.029*[#  31]+0.010*[#   6]+0.010*[#   7]+0.010*[#   9]+0.010*[#  15]
          +0.010*[#  16]+0.010*[#  18]+0.010*[#  24]+0.010*[#  25]+0.010*[#  27]
          +0.010*[#  33]+0.010*[#  34]+0.010*[#  36]+0.005*[#   5]+0.005*[#   8]
          +0.005*[#  14]+0.005*[#  17]+0.005*[#  23]+0.005*[#  26]+0.005*[#  32]
          +0.005*[#  35]
    |psi|^2 = 0.988
==== e(  24) =    22.32951 eV ==== 
     psi = 0.177*[#   1]+0.177*[#  10]+0.177*[#  19]+0.177*[#  28]+0.016*[#   2]
          +0.016*[#   3]+0.016*[#   4]+0.016*[#  11]+0.016*[#  12]+0.016*[#  13]
          +0.016*[#  20]+0.016*[#  21]+0.016*[#  22]+0.016*[#  29]+0.016*[#  30]
          +0.016*[#  31]+0.004*[#   6]+0.004*[#   7]+0.004*[#   9]+0.004*[#  15]
          +0.004*[#  16]+0.004*[#  18]+0.004*[#  24]+0.004*[#  25]+0.004*[#  27]
          +0.004*[#  33]+0.004*[#  34]+0.004*[#  36]+0.003*[#   5]+0.003*[#   8]
          +0.003*[#  14]+0.003*[#  17]+0.003*[#  23]+0.003*[#  26]+0.003*[#  32]
          +0.003*[#  35]
    |psi|^2 = 0.985

 k =   0.0000000000  0.2857142857  0.2857142857
==== e(   1) =     8.78338 eV ==== 
     psi = 0.081*[#   1]+0.081*[#  10]+0.081*[#  19]+0.081*[#  28]+0.052*[#   2]
          +0.052*[#   3]+0.052*[#   4]+0.052*[#  11]+0.052*[#  12]+0.052*[#  13]
          +0.052*[#  20]+0.052*[#  21]+0.052*[#  22]+0.052*[#  29]+0.052*[#  30]
          +0.052*[#  31]+0.003*[#   6]+0.003*[#   7]+0.003*[#   9]+0.003*[#  15]
          +0.003*[#  16]+0.003*[#  18]+0.003*[#  24]+0.003*[#  25]+0.003*[#  27]
          +0.003*[#  33]+0.003*[#  34]+0.003*[#  36]
    |psi|^2 = 0.999
==== e(   2) =    10.94996 eV ==== 
     psi = 0.057*[#  32]+0.057*[#  17]+0.057*[#  26]+0.056*[#  14]+0.056*[#  23]
          +0.056*[#  35]+0.056*[#   5]+0.056*[#   8]+0.042*[#  15]+0.042*[#  16]
          +0.042*[#  18]+0.042*[#  24]+0.042*[#  25]+0.042*[#  27]+0.042*[#  33]
          +0.042*[#  34]+0.042*[#  36]+0.042*[#   6]+0.042*[#   7]+0.042*[#   9]
          +0.011*[#   1]+0.010*[#  10]+0.010*[#  19]+0.010*[#  28]
    |psi|^2 = 0.999
==== e(   3) =    11.03407 eV ==== 
     psi = 0.152*[#  32]+0.123*[#  17]+0.123*[#  26]+0.066*[#  14]+0.066*[#  23]
          +0.060*[#   5]+0.060*[#   8]+0.051*[#   1]+0.038*[#  35]+0.029*[#  12]
          +0.029*[#  22]+0.029*[#  29]+0.017*[#  10]+0.017*[#  19]+0.017*[#  28]
          +0.015*[#  11]+0.015*[#  13]+0.015*[#  20]+0.015*[#  21]+0.015*[#  30]
          +0.015*[#  31]+0.004*[#   6]+0.004*[#   7]+0.004*[#   9]+0.004*[#  16]
          +0.004*[#  24]+0.004*[#  36]+0.001*[#   2]+0.001*[#   3]+0.001*[#   4]
          
    |psi|^2 = 0.999
==== e(   4) =    11.03437 eV ==== 
     psi = 0.135*[#  35]+0.113*[#   5]+0.113*[#   8]+0.106*[#  14]+0.106*[#  23]
          +0.049*[#  17]+0.049*[#  26]+0.034*[#  10]+0.034*[#  19]+0.034*[#  28]
          +0.029*[#   2]+0.029*[#   3]+0.029*[#   4]+0.020*[#  32]+0.015*[#  11]
          +0.015*[#  13]+0.015*[#  20]+0.015*[#  21]+0.015*[#  30]+0.015*[#  31]
          +0.004*[#  15]+0.004*[#  18]+0.004*[#  25]+0.004*[#  27]+0.004*[#  33]
          +0.004*[#  34]+0.001*[#  12]+0.001*[#  22]+0.001*[#  29]
    |psi|^2 = 0.999
==== e(   5) =    11.40371 eV ==== 
     psi = 0.109*[#  16]+0.109*[#  24]+0.109*[#  36]+0.081*[#  15]+0.081*[#  18]
          +0.081*[#  25]+0.081*[#  27]+0.081*[#  33]+0.081*[#  34]+0.052*[#   6]
          +0.052*[#   7]+0.052*[#   9]+0.005*[#   2]+0.005*[#   3]+0.005*[#   4]
          +0.005*[#  12]+0.005*[#  22]+0.005*[#  29]
    |psi|^2 = 0.999
==== e(   6) =    11.40405 eV ==== 
     psi = 0.109*[#   6]+0.109*[#   7]+0.109*[#   9]+0.081*[#  15]+0.081*[#  18]
          +0.081*[#  25]+0.081*[#  27]+0.081*[#  33]+0.081*[#  34]+0.052*[#  16]
          +0.052*[#  24]+0.052*[#  36]+0.005*[#  11]+0.005*[#  13]+0.005*[#  20]
          +0.005*[#  21]+0.005*[#  30]+0.005*[#  31]
    |psi|^2 = 0.999
==== e(   7) =    11.77957 eV ==== 
     psi = 0.061*[#   5]+0.061*[#   8]+0.061*[#  14]+0.061*[#  17]+0.061*[#  23]
          +0.061*[#  26]+0.061*[#  32]+0.061*[#  35]+0.035*[#  16]+0.035*[#  24]
          +0.035*[#  36]+0.035*[#   6]+0.035*[#   7]+0.035*[#   9]+0.035*[#  15]
          +0.035*[#  18]+0.035*[#  25]+0.035*[#  27]+0.035*[#  33]+0.035*[#  34]
          +0.008*[#   2]+0.008*[#   3]+0.008*[#   4]+0.008*[#  11]+0.008*[#  12]
          +0.008*[#  13]+0.008*[#  20]+0.008*[#  21]+0.008*[#  22]+0.008*[#  29]
          +0.008*[#  30]+0.008*[#  31]
    |psi|^2 = 0.999
==== e(   8) =    12.41303 eV ==== 
     psi = 0.082*[#  16]+0.082*[#  24]+0.082*[#  36]+0.082*[#   6]+0.082*[#   7]
          +0.082*[#   9]+0.082*[#  15]+0.082*[#  18]+0.082*[#  25]+0.082*[#  27]
          +0.082*[#  33]+0.082*[#  34]+0.001*[#   2]+0.001*[#   3]+0.001*[#   4]
          +0.001*[#  11]+0.001*[#  12]+0.001*[#  13]+0.001*[#  20]+0.001*[#  21]
          +0.001*[#  22]+0.001*[#  29]+0.001*[#  30]+0.001*[#  31]
    |psi|^2 = 0.999
==== e(   9) =    13.06432 eV ==== 
     psi = 0.097*[#  15]+0.097*[#  18]+0.097*[#  25]+0.097*[#  27]+0.097*[#  33]
          +0.097*[#  34]+0.052*[#  35]+0.043*[#  14]+0.043*[#  23]+0.024*[#  17]
          +0.024*[#  26]+0.024*[#  10]+0.024*[#  19]+0.024*[#  28]+0.015*[#  32]
          +0.011*[#  12]+0.011*[#  22]+0.011*[#  29]+0.011*[#  11]+0.011*[#  13]
          +0.011*[#  20]+0.011*[#  21]+0.011*[#  30]+0.011*[#  31]+0.010*[#   2]
          +0.010*[#   3]+0.010*[#   4]+0.009*[#   5]+0.009*[#   8]
    |psi|^2 = 0.998
==== e(  10) =    13.06540 eV ==== 
     psi = 0.097*[#  16]+0.097*[#  24]+0.097*[#  36]+0.096*[#   6]+0.096*[#   7]
          +0.096*[#   9]+0.046*[#   5]+0.046*[#   8]+0.039*[#  32]+0.036*[#   1]
          +0.030*[#  17]+0.030*[#  26]+0.012*[#  10]+0.012*[#  14]+0.012*[#  19]
          +0.012*[#  23]+0.012*[#  28]+0.011*[#   2]+0.011*[#   3]+0.011*[#   4]
          +0.011*[#  11]+0.011*[#  13]+0.011*[#  20]+0.011*[#  21]+0.011*[#  30]
          +0.011*[#  31]+0.010*[#  12]+0.010*[#  22]+0.010*[#  29]+0.003*[#  35]
          
    |psi|^2 = 0.998
==== e(  11) =    13.47888 eV ==== 
     psi = 0.055*[#   6]+0.055*[#   7]+0.055*[#   9]+0.055*[#  15]+0.055*[#  16]
          +0.055*[#  18]+0.055*[#  24]+0.055*[#  25]+0.055*[#  27]+0.055*[#  33]
          +0.055*[#  34]+0.055*[#  36]+0.039*[#  17]+0.039*[#  32]+0.039*[#   5]
          +0.039*[#   8]+0.039*[#  14]+0.039*[#  23]+0.039*[#  26]+0.039*[#  35]
          +0.002*[#   2]+0.002*[#   3]+0.002*[#   4]+0.002*[#  11]+0.002*[#  12]
          +0.002*[#  13]+0.002*[#  20]+0.002*[#  21]+0.002*[#  22]+0.002*[#  29]
          +0.002*[#  30]+0.002*[#  31]
    |psi|^2 = 0.999
==== e(  12) =    13.60472 eV ==== 
     psi = 0.074*[#   6]+0.074*[#   7]+0.074*[#   9]+0.074*[#  15]+0.074*[#  18]
          +0.074*[#  25]+0.074*[#  27]+0.074*[#  33]+0.074*[#  34]+0.074*[#  16]
          +0.074*[#  24]+0.074*[#  36]+0.009*[#   2]+0.009*[#   3]+0.009*[#   4]
          +0.009*[#  11]+0.009*[#  12]+0.009*[#  13]+0.009*[#  20]+0.009*[#  21]
          +0.009*[#  22]+0.009*[#  29]+0.009*[#  30]+0.009*[#  31]
    |psi|^2 = 0.999
==== e(  13) =    13.79229 eV ==== 
     psi = 0.083*[#  16]+0.083*[#  24]+0.083*[#  36]+0.083*[#   6]+0.083*[#   7]
          +0.083*[#   9]+0.083*[#  15]+0.083*[#  18]+0.083*[#  25]+0.083*[#  27]
          +0.083*[#  33]+0.083*[#  34]
    |psi|^2 = 1.000
==== e(  14) =    14.42019 eV ==== 
     psi = 0.125*[#  32]+0.125*[#  17]+0.125*[#  26]+0.125*[#  14]+0.125*[#  23]
          +0.125*[#  35]+0.125*[#   5]+0.125*[#   8]
    |psi|^2 = 0.999
==== e(  15) =    15.15192 eV ==== 
     psi = 0.125*[#  35]+0.125*[#  14]+0.125*[#  23]+0.124*[#   5]+0.124*[#   8]
          +0.124*[#  17]+0.124*[#  26]+0.124*[#  32]
    |psi|^2 = 0.999
==== e(  16) =    15.50447 eV ==== 
     psi = 0.194*[#  32]+0.156*[#  17]+0.156*[#  26]+0.109*[#   5]+0.109*[#   8]
          +0.079*[#  14]+0.079*[#  23]+0.040*[#  35]+0.010*[#  12]+0.010*[#  22]
          +0.010*[#  29]+0.006*[#  11]+0.006*[#  13]+0.006*[#  20]+0.006*[#  21]
          +0.006*[#  30]+0.006*[#  31]+0.003*[#   1]+0.002*[#   2]+0.002*[#   3]
          +0.002*[#   4]+0.001*[#  10]+0.001*[#  19]+0.001*[#  28]
    |psi|^2 = 0.999
==== e(  17) =    15.50466 eV ==== 
     psi = 0.189*[#  35]+0.151*[#  14]+0.151*[#  23]+0.122*[#   5]+0.122*[#   8]
          +0.075*[#  17]+0.075*[#  26]+0.037*[#  32]+0.010*[#   2]+0.010*[#   3]
          +0.010*[#   4]+0.006*[#  11]+0.006*[#  13]+0.006*[#  20]+0.006*[#  21]
          +0.006*[#  30]+0.006*[#  31]+0.002*[#  10]+0.002*[#  19]+0.002*[#  28]
          +0.002*[#  12]+0.002*[#  22]+0.002*[#  29]
    |psi|^2 = 0.999
==== e(  18) =    15.73629 eV ==== 
     psi = 0.086*[#   5]+0.086*[#   8]+0.086*[#  35]+0.085*[#  14]+0.085*[#  23]
          +0.085*[#  17]+0.085*[#  26]+0.085*[#  32]+0.024*[#   6]+0.024*[#   7]
          +0.024*[#   9]+0.024*[#  15]+0.024*[#  16]+0.024*[#  18]+0.024*[#  24]
          +0.024*[#  25]+0.024*[#  27]+0.024*[#  33]+0.024*[#  34]+0.024*[#  36]
          +0.002*[#   1]+0.002*[#  10]+0.002*[#  19]+0.002*[#  28]+0.001*[#   2]
          +0.001*[#   3]+0.001*[#   4]+0.001*[#  11]+0.001*[#  12]+0.001*[#  13]
          +0.001*[#  20]+0.001*[#  21]+0.001*[#  22]+0.001*[#  29]+0.001*[#  30]
          +0.001*[#  31]
    |psi|^2 = 0.999
==== e(  19) =    15.95249 eV ==== 
     psi = 0.113*[#  16]+0.113*[#  24]+0.113*[#  36]+0.083*[#  15]+0.083*[#  18]
          +0.083*[#  25]+0.083*[#  27]+0.083*[#  33]+0.083*[#  34]+0.052*[#   6]
          +0.052*[#   7]+0.052*[#   9]
    |psi|^2 = 0.999
==== e(  20) =    15.95305 eV ==== 
     psi = 0.114*[#   6]+0.114*[#   7]+0.114*[#   9]+0.083*[#  15]+0.083*[#  18]
          +0.083*[#  25]+0.083*[#  27]+0.083*[#  33]+0.083*[#  34]+0.052*[#  16]
          +0.052*[#  24]+0.052*[#  36]
    |psi|^2 = 0.999
==== e(  21) =    16.27529 eV ==== 
     psi = 0.084*[#   6]+0.084*[#   7]+0.084*[#   9]+0.084*[#  16]+0.084*[#  24]
          +0.084*[#  36]+0.083*[#  15]+0.083*[#  18]+0.083*[#  25]+0.083*[#  27]
          +0.083*[#  33]+0.083*[#  34]
    |psi|^2 = 0.999
==== e(  22) =    18.57657 eV ==== 
     psi = 0.064*[#  15]+0.064*[#  18]+0.064*[#  25]+0.064*[#  27]+0.064*[#  33]
          +0.064*[#  34]+0.049*[#  10]+0.049*[#  19]+0.049*[#  28]+0.045*[#   2]
          +0.045*[#   3]+0.045*[#   4]+0.034*[#  35]+0.028*[#  14]+0.028*[#  23]
          +0.027*[#  11]+0.027*[#  13]+0.027*[#  20]+0.027*[#  21]+0.027*[#  30]
          +0.027*[#  31]+0.016*[#  17]+0.016*[#  26]+0.011*[#  32]+0.010*[#  12]
          +0.010*[#  22]+0.010*[#  29]+0.004*[#   5]+0.004*[#   8]
    |psi|^2 = 0.997
==== e(  23) =    18.57759 eV ==== 
     psi = 0.074*[#   1]+0.064*[#   6]+0.064*[#   7]+0.064*[#   9]+0.064*[#  16]
          +0.064*[#  24]+0.064*[#  36]+0.045*[#  12]+0.045*[#  22]+0.045*[#  29]
          +0.032*[#   5]+0.032*[#   8]+0.027*[#  11]+0.027*[#  13]+0.027*[#  20]
          +0.027*[#  21]+0.027*[#  30]+0.027*[#  31]+0.025*[#  32]+0.025*[#  10]
          +0.025*[#  19]+0.025*[#  28]+0.019*[#  17]+0.019*[#  26]+0.009*[#   2]
          +0.009*[#   3]+0.009*[#   4]+0.007*[#  14]+0.007*[#  23]+0.001*[#  35]
          
    |psi|^2 = 0.997
==== e(  24) =    21.67755 eV ==== 
     psi = 0.171*[#   1]+0.171*[#  10]+0.171*[#  19]+0.171*[#  28]+0.019*[#   2]
          +0.019*[#   3]+0.019*[#   4]+0.019*[#  11]+0.019*[#  12]+0.019*[#  13]
          +0.019*[#  20]+0.019*[#  21]+0.019*[#  22]+0.019*[#  29]+0.019*[#  30]
          +0.019*[#  31]+0.006*[#   6]+0.006*[#   7]+0.006*[#   9]+0.006*[#  15]
          +0.006*[#  16]+0.006*[#  18]+0.006*[#  24]+0.006*[#  25]+0.006*[#  27]
          +0.006*[#  33]+0.006*[#  34]+0.006*[#  36]
    |psi|^2 = 0.983

 k =   0.0000000000  0.2857142857  0.4285714286
==== e(   1) =     9.74035 eV ==== 
     psi = 0.067*[#   1]+0.067*[#  10]+0.067*[#  19]+0.067*[#  28]+0.051*[#   2]
          +0.051*[#   3]+0.051*[#   4]+0.051*[#  11]+0.051*[#  12]+0.051*[#  13]
          +0.051*[#  20]+0.051*[#  21]+0.051*[#  22]+0.051*[#  29]+0.051*[#  30]
          +0.051*[#  31]+0.008*[#   6]+0.008*[#   7]+0.008*[#   9]+0.008*[#  15]
          +0.008*[#  16]+0.008*[#  18]+0.008*[#  24]+0.008*[#  25]+0.008*[#  27]
          +0.008*[#  33]+0.008*[#  34]+0.008*[#  36]+0.003*[#   5]+0.003*[#   8]
          +0.003*[#  14]+0.003*[#  17]+0.003*[#  23]+0.003*[#  26]+0.003*[#  32]
          +0.003*[#  35]
    |psi|^2 = 0.998
==== e(   2) =    10.70890 eV ==== 
     psi = 0.052*[#   1]+0.052*[#  10]+0.052*[#  19]+0.052*[#  28]+0.039*[#   2]
          +0.039*[#   3]+0.039*[#   4]+0.039*[#  11]+0.039*[#  12]+0.039*[#  13]
          +0.039*[#  20]+0.039*[#  21]+0.039*[#  22]+0.039*[#  29]+0.039*[#  30]
          +0.039*[#  31]+0.025*[#   5]+0.025*[#   8]+0.025*[#  14]+0.025*[#  17]
          +0.025*[#  23]+0.025*[#  26]+0.025*[#  32]+0.025*[#  35]+0.010*[#   6]
          +0.010*[#   7]+0.010*[#   9]+0.010*[#  15]+0.010*[#  16]+0.010*[#  18]
          +0.010*[#  24]+0.010*[#  25]+0.010*[#  27]+0.010*[#  33]+0.010*[#  34]
          +0.010*[#  36]
    |psi|^2 = 0.998
==== e(   3) =    11.40001 eV ==== 
     psi = 0.051*[#  15]+0.051*[#  16]+0.051*[#  18]+0.051*[#  24]+0.051*[#  25]
          +0.051*[#  27]+0.051*[#  33]+0.051*[#  34]+0.051*[#  36]+0.051*[#   6]
          +0.051*[#   7]+0.051*[#   9]+0.040*[#  14]+0.040*[#  17]+0.040*[#  23]
          +0.040*[#  26]+0.040*[#  32]+0.040*[#  35]+0.040*[#   5]+0.040*[#   8]
          +0.014*[#   1]+0.014*[#  10]+0.014*[#  19]+0.014*[#  28]+0.001*[#   2]
          +0.001*[#   3]+0.001*[#   4]+0.001*[#  11]+0.001*[#  12]+0.001*[#  13]
          +0.001*[#  20]+0.001*[#  21]+0.001*[#  22]+0.001*[#  29]+0.001*[#  30]
          +0.001*[#  31]
    |psi|^2 = 0.999
==== e(   4) =    11.74584 eV ==== 
     psi = 0.081*[#  15]+0.081*[#  18]+0.081*[#  25]+0.081*[#  27]+0.081*[#  33]
          +0.081*[#  34]+0.081*[#  16]+0.081*[#  24]+0.081*[#  36]+0.081*[#   6]
          +0.081*[#   7]+0.081*[#   9]+0.002*[#   2]+0.002*[#   3]+0.002*[#   4]
          +0.002*[#  11]+0.002*[#  12]+0.002*[#  13]+0.002*[#  20]+0.002*[#  21]
          +0.002*[#  22]+0.002*[#  29]+0.002*[#  30]+0.002*[#  31]
    |psi|^2 = 0.999
==== e(   5) =    11.75996 eV ==== 
     psi = 0.081*[#  14]+0.081*[#  17]+0.081*[#  23]+0.081*[#  26]+0.081*[#  32]
          +0.081*[#  35]+0.080*[#   5]+0.080*[#   8]+0.019*[#   1]+0.019*[#  10]
          +0.019*[#  19]+0.019*[#  28]+0.015*[#   2]+0.015*[#   3]+0.015*[#   4]
          +0.015*[#  11]+0.015*[#  12]+0.015*[#  13]+0.015*[#  20]+0.015*[#  21]
          +0.015*[#  22]+0.015*[#  29]+0.015*[#  30]+0.015*[#  31]+0.008*[#   6]
          +0.008*[#   7]+0.008*[#   9]+0.008*[#  15]+0.008*[#  16]+0.008*[#  18]
          +0.008*[#  24]+0.008*[#  25]+0.008*[#  27]+0.008*[#  33]+0.008*[#  34]
          +0.008*[#  36]
    |psi|^2 = 0.999
==== e(   6) =    12.03476 eV ==== 
     psi = 0.079*[#  15]+0.079*[#  18]+0.079*[#  25]+0.079*[#  27]+0.079*[#  33]
          +0.079*[#  34]+0.079*[#   6]+0.079*[#   7]+0.079*[#   9]+0.078*[#  16]
          +0.078*[#  24]+0.078*[#  36]+0.005*[#   2]+0.005*[#   3]+0.005*[#   4]
          +0.005*[#  11]+0.005*[#  12]+0.005*[#  13]+0.005*[#  20]+0.005*[#  21]
          +0.005*[#  22]+0.005*[#  29]+0.005*[#  30]+0.005*[#  31]
    |psi|^2 = 0.999
==== e(   7) =    12.10784 eV ==== 
     psi = 0.061*[#  16]+0.061*[#  24]+0.061*[#  36]+0.055*[#  32]+0.049*[#  15]
          +0.049*[#  17]+0.049*[#  18]+0.049*[#  25]+0.049*[#  26]+0.049*[#  27]
          +0.049*[#  33]+0.049*[#  34]+0.038*[#   6]+0.038*[#   7]+0.038*[#   9]
          +0.037*[#  14]+0.037*[#  23]+0.031*[#  35]+0.018*[#   1]+0.017*[#   5]
          +0.017*[#   8]+0.013*[#  10]+0.013*[#  19]+0.013*[#  28]+0.007*[#   2]
          +0.007*[#   3]+0.007*[#   4]+0.004*[#  11]+0.004*[#  13]+0.004*[#  20]
          +0.004*[#  21]+0.004*[#  30]+0.004*[#  31]+0.003*[#  12]+0.003*[#  22]
          +0.003*[#  29]
    |psi|^2 = 0.999
==== e(   8) =    12.10994 eV ==== 
     psi = 0.095*[#   5]+0.095*[#   8]+0.081*[#  35]+0.075*[#  14]+0.075*[#  23]
          +0.062*[#  17]+0.062*[#  26]+0.056*[#  32]+0.031*[#   6]+0.031*[#   7]
          +0.031*[#   9]+0.020*[#  15]+0.020*[#  18]+0.020*[#  25]+0.020*[#  27]
          +0.020*[#  33]+0.020*[#  34]+0.013*[#  12]+0.013*[#  22]+0.013*[#  29]
          +0.012*[#  11]+0.012*[#  13]+0.012*[#  20]+0.012*[#  21]+0.012*[#  30]
          +0.012*[#  31]+0.009*[#   2]+0.009*[#   3]+0.009*[#   4]+0.008*[#  16]
          +0.008*[#  24]+0.008*[#  36]+0.007*[#  10]+0.007*[#  19]+0.007*[#  28]
          +0.003*[#   1]
    |psi|^2 = 0.999
==== e(   9) =    12.12329 eV ==== 
     psi = 0.082*[#  16]+0.082*[#  24]+0.082*[#  36]+0.081*[#   6]+0.081*[#   7]
          +0.081*[#   9]+0.081*[#  15]+0.081*[#  18]+0.081*[#  25]+0.081*[#  27]
          +0.081*[#  33]+0.081*[#  34]+0.002*[#   2]+0.002*[#   3]+0.002*[#   4]
          +0.002*[#  11]+0.002*[#  12]+0.002*[#  13]+0.002*[#  20]+0.002*[#  21]
          +0.002*[#  22]+0.002*[#  29]+0.002*[#  30]+0.002*[#  31]
    |psi|^2 = 0.999
==== e(  10) =    12.82250 eV ==== 
     psi = 0.073*[#   5]+0.073*[#   8]+0.073*[#  14]+0.073*[#  17]+0.073*[#  23]
          +0.073*[#  26]+0.073*[#  32]+0.073*[#  35]+0.031*[#   6]+0.031*[#   7]
          +0.031*[#   9]+0.031*[#  15]+0.031*[#  16]+0.031*[#  18]+0.031*[#  24]
          +0.031*[#  25]+0.031*[#  27]+0.031*[#  33]+0.031*[#  34]+0.031*[#  36]
          +0.004*[#   1]+0.004*[#  10]+0.004*[#  19]+0.004*[#  28]+0.002*[#   2]
          +0.002*[#   3]+0.002*[#   4]+0.002*[#  11]+0.002*[#  12]+0.002*[#  13]
          +0.002*[#  20]+0.002*[#  21]+0.002*[#  22]+0.002*[#  29]+0.002*[#  30]
          +0.002*[#  31]
    |psi|^2 = 0.999
==== e(  11) =    12.82324 eV ==== 
     psi = 0.077*[#   6]+0.077*[#   7]+0.077*[#   9]+0.077*[#  15]+0.077*[#  18]
          +0.077*[#  25]+0.077*[#  27]+0.077*[#  33]+0.077*[#  34]+0.077*[#  16]
          +0.077*[#  24]+0.077*[#  36]+0.007*[#   2]+0.007*[#   3]+0.007*[#   4]
          +0.007*[#  11]+0.007*[#  12]+0.007*[#  13]+0.007*[#  20]+0.007*[#  21]
          +0.007*[#  22]+0.007*[#  29]+0.007*[#  30]+0.007*[#  31]
    |psi|^2 = 0.999
[...]
          +0.010*[#   5]+0.010*[#   8]+0.008*[#  10]+0.008*[#  19]+0.008*[#  28]
          +0.008*[#   1]
    |psi|^2 = 0.994
==== e(  14) =    14.15207 eV ==== 
     psi = 0.046*[#  15]+0.046*[#  18]+0.046*[#  25]+0.046*[#  27]+0.046*[#  33]
          +0.046*[#  34]+0.045*[#   2]+0.045*[#   3]+0.045*[#   4]+0.039*[#  11]
          +0.039*[#  13]+0.039*[#  20]+0.039*[#  21]+0.039*[#  30]+0.039*[#  31]
          +0.038*[#   6]+0.038*[#   7]+0.038*[#   9]+0.032*[#  16]+0.032*[#  24]
          +0.032*[#  36]+0.030*[#  35]+0.025*[#  14]+0.025*[#  23]+0.014*[#  17]
          +0.014*[#  26]+0.009*[#  32]+0.006*[#  10]+0.006*[#  19]+0.006*[#  28]
          +0.004*[#   5]+0.004*[#   8]
    |psi|^2 = 0.997
==== e(  15) =    14.15213 eV ==== 
     psi = 0.059*[#  12]+0.059*[#  22]+0.059*[#  29]+0.050*[#  16]+0.050*[#  24]
          +0.050*[#  36]+0.045*[#   6]+0.045*[#   7]+0.045*[#   9]+0.034*[#  15]
          +0.034*[#  18]+0.034*[#  25]+0.034*[#  27]+0.034*[#  33]+0.034*[#  34]
          +0.028*[#   5]+0.028*[#   8]+0.023*[#  11]+0.023*[#  13]+0.023*[#  20]
          +0.023*[#  21]+0.023*[#  30]+0.023*[#  31]+0.021*[#  32]+0.017*[#   2]
          +0.017*[#   3]+0.017*[#   4]+0.016*[#  17]+0.016*[#  26]+0.009*[#   1]
          +0.006*[#  14]+0.006*[#  23]+0.003*[#  10]+0.003*[#  19]+0.003*[#  28]
          +0.001*[#  35]
    |psi|^2 = 0.997
==== e(  16) =    14.32453 eV ==== 
     psi = 0.044*[#   6]+0.044*[#   7]+0.044*[#   9]+0.044*[#  15]+0.044*[#  18]
          +0.044*[#  25]+0.044*[#  27]+0.044*[#  33]+0.044*[#  34]+0.044*[#  16]
          +0.044*[#  24]+0.044*[#  36]+0.027*[#   2]+0.027*[#   3]+0.027*[#   4]
          +0.027*[#  11]+0.027*[#  12]+0.027*[#  13]+0.027*[#  20]+0.027*[#  21]
          +0.027*[#  22]+0.027*[#  29]+0.027*[#  30]+0.027*[#  31]+0.019*[#   5]
          +0.019*[#   8]+0.019*[#  14]+0.019*[#  17]+0.019*[#  23]+0.019*[#  26]
          +0.019*[#  32]+0.019*[#  35]
    |psi|^2 = 0.998
==== e(  17) =    16.04675 eV ==== 
     psi = 0.052*[#   5]+0.052*[#   8]+0.052*[#  14]+0.052*[#  17]+0.052*[#  23]
          +0.052*[#  26]+0.052*[#  32]+0.052*[#  35]+0.048*[#   6]+0.048*[#   7]
          +0.048*[#   9]+0.048*[#  15]+0.048*[#  16]+0.048*[#  18]+0.048*[#  24]
          +0.048*[#  25]+0.048*[#  27]+0.048*[#  33]+0.048*[#  34]+0.048*[#  36]
          
    |psi|^2 = 0.999
==== e(  18) =    16.51456 eV ==== 
     psi = 0.075*[#  16]+0.075*[#  24]+0.075*[#  36]+0.074*[#  35]+0.070*[#   5]
          +0.070*[#   8]+0.058*[#  15]+0.058*[#  18]+0.058*[#  25]+0.058*[#  27]
          +0.058*[#  33]+0.058*[#  34]+0.057*[#  14]+0.057*[#  23]+0.024*[#  17]
          +0.024*[#  26]+0.010*[#   6]+0.010*[#   7]+0.010*[#   9]+0.007*[#  32]
          +0.002*[#   2]+0.002*[#   3]+0.002*[#   4]+0.002*[#  11]+0.002*[#  13]
          +0.002*[#  20]+0.002*[#  21]+0.002*[#  30]+0.002*[#  31]
    |psi|^2 = 0.999
==== e(  19) =    16.51495 eV ==== 
     psi = 0.089*[#   6]+0.089*[#   7]+0.089*[#   9]+0.088*[#  32]+0.072*[#  17]
          +0.072*[#  26]+0.045*[#  15]+0.045*[#  18]+0.045*[#  25]+0.045*[#  27]
          +0.045*[#  33]+0.045*[#  34]+0.040*[#  14]+0.040*[#  23]+0.024*[#  35]
          +0.023*[#   5]+0.023*[#   8]+0.022*[#  16]+0.022*[#  24]+0.022*[#  36]
          +0.002*[#  12]+0.002*[#  22]+0.002*[#  29]
    |psi|^2 = 0.999
==== e(  20) =    16.54038 eV ==== 
     psi = 0.056*[#  16]+0.056*[#  24]+0.056*[#  36]+0.055*[#   6]+0.055*[#   7]
          +0.055*[#   9]+0.052*[#  15]+0.052*[#  18]+0.052*[#  25]+0.052*[#  27]
          +0.052*[#  33]+0.052*[#  34]+0.047*[#   5]+0.047*[#   8]+0.045*[#  32]
          +0.044*[#  17]+0.044*[#  26]+0.043*[#  14]+0.043*[#  23]+0.042*[#  35]
          
    |psi|^2 = 0.999
==== e(  21) =    17.00854 eV ==== 
     psi = 0.047*[#   5]+0.047*[#   8]+0.047*[#  14]+0.047*[#  17]+0.047*[#  23]
          +0.047*[#  26]+0.047*[#  32]+0.047*[#  35]+0.039*[#   6]+0.039*[#   7]
          +0.039*[#   9]+0.039*[#  15]+0.039*[#  16]+0.039*[#  18]+0.039*[#  24]
          +0.039*[#  25]+0.039*[#  27]+0.039*[#  33]+0.039*[#  34]+0.039*[#  36]
          +0.011*[#   2]+0.011*[#   3]+0.011*[#   4]+0.011*[#  11]+0.011*[#  12]
          +0.011*[#  13]+0.011*[#  20]+0.011*[#  21]+0.011*[#  22]+0.011*[#  29]
          +0.011*[#  30]+0.011*[#  31]+0.005*[#   1]+0.005*[#  10]+0.005*[#  19]
          +0.005*[#  28]
    |psi|^2 = 0.997
==== e(  22) =    18.22058 eV ==== 
     psi = 0.053*[#  15]+0.053*[#  18]+0.053*[#  25]+0.053*[#  27]+0.053*[#  33]
          +0.053*[#  34]+0.052*[#  35]+0.052*[#   2]+0.052*[#   3]+0.052*[#   4]
          +0.043*[#  14]+0.043*[#  23]+0.040*[#  11]+0.040*[#  13]+0.040*[#  20]
          +0.040*[#  21]+0.040*[#  30]+0.040*[#  31]+0.025*[#  17]+0.025*[#  26]
          +0.016*[#  10]+0.016*[#  19]+0.016*[#  28]+0.016*[#  32]+0.007*[#   5]
          +0.007*[#   8]+0.005*[#  16]+0.005*[#  24]+0.005*[#  36]
    |psi|^2 = 0.995
==== e(  23) =    18.22143 eV ==== 
     psi = 0.066*[#  12]+0.066*[#  22]+0.066*[#  29]+0.055*[#   6]+0.055*[#   7]
          +0.055*[#   9]+0.050*[#  16]+0.050*[#  24]+0.050*[#  36]+0.048*[#   5]
          +0.048*[#   8]+0.039*[#  32]+0.029*[#  17]+0.029*[#  26]+0.026*[#  11]
          +0.026*[#  13]+0.026*[#  20]+0.026*[#  21]+0.026*[#  30]+0.026*[#  31]
          +0.025*[#   1]+0.014*[#   2]+0.014*[#   3]+0.014*[#   4]+0.011*[#  14]
          +0.011*[#  23]+0.008*[#  10]+0.008*[#  19]+0.008*[#  28]+0.003*[#  15]
          +0.003*[#  18]+0.003*[#  25]+0.003*[#  27]+0.003*[#  33]+0.003*[#  34]
          +0.002*[#  35]
    |psi|^2 = 0.995
==== e(  24) =    19.27802 eV ==== 
     psi = 0.049*[#   2]+0.049*[#   3]+0.049*[#   4]+0.049*[#  11]+0.049*[#  12]
          +0.049*[#  13]+0.049*[#  20]+0.049*[#  21]+0.049*[#  22]+0.049*[#  29]
          +0.049*[#  30]+0.049*[#  31]+0.019*[#   5]+0.019*[#   8]+0.019*[#  14]
          +0.019*[#  17]+0.019*[#  23]+0.019*[#  26]+0.019*[#  32]+0.019*[#  35]
          +0.017*[#   6]+0.017*[#   7]+0.017*[#   9]+0.017*[#  15]+0.017*[#  16]
          +0.017*[#  18]+0.017*[#  24]+0.017*[#  25]+0.017*[#  27]+0.017*[#  33]
          +0.017*[#  34]+0.017*[#  36]+0.010*[#   1]+0.010*[#  10]+0.010*[#  19]
          +0.010*[#  28]
    |psi|^2 = 0.993

 k =   0.4285714286  0.4285714286  0.4285714286
==== e(   1) =     9.80886 eV ==== 
     psi = 0.061*[#   6]+0.061*[#   7]+0.061*[#   9]+0.062*[#  15]+0.061*[#  16]
          +0.062*[#  18]+0.061*[#  24]+0.062*[#  25]+0.062*[#  27]+0.062*[#  33]
          +0.062*[#  34]+0.061*[#  36]+0.049*[#   1]+0.049*[#  10]+0.049*[#  19]
          +0.049*[#  28]+0.006*[#   2]+0.006*[#   3]+0.006*[#   4]+0.006*[#  11]
          +0.006*[#  12]+0.006*[#  13]+0.006*[#  20]+0.006*[#  21]+0.006*[#  22]
          +0.006*[#  29]+0.006*[#  30]+0.006*[#  31]
    |psi|^2 = 0.999
==== e(   2) =     9.97349 eV ==== 
     psi = 0.199*[#  16]+0.199*[#  24]+0.199*[#  36]+0.139*[#   1]+0.024*[#  15]
          +0.024*[#  18]+0.024*[#  25]+0.024*[#  27]+0.024*[#  33]+0.024*[#  34]
          +0.019*[#   6]+0.019*[#   7]+0.019*[#   9]+0.015*[#  10]+0.015*[#  19]
          +0.015*[#  28]+0.002*[#  12]+0.002*[#  22]+0.002*[#  29]+0.001*[#  11]
          +0.001*[#  13]+0.001*[#  20]+0.001*[#  21]+0.001*[#  30]+0.001*[#  31]
          +0.001*[#   2]+0.001*[#   3]+0.001*[#   4]
    |psi|^2 = 0.999
==== e(   3) =     9.97353 eV ==== 
     psi = 0.090*[#   6]+0.090*[#   7]+0.090*[#   9]+0.087*[#  15]+0.087*[#  18]
          +0.087*[#  25]+0.087*[#  27]+0.087*[#  33]+0.087*[#  34]+0.062*[#  10]
          +0.062*[#  19]+0.062*[#  28]+0.002*[#   2]+0.002*[#   3]+0.002*[#   4]
          +0.001*[#  11]+0.001*[#  13]+0.001*[#  20]+0.001*[#  21]+0.001*[#  30]
          +0.001*[#  31]+0.001*[#  12]+0.001*[#  22]+0.001*[#  29]
    |psi|^2 = 0.999
==== e(   4) =     9.97353 eV ==== 
     psi = 0.090*[#   6]+0.090*[#   7]+0.090*[#   9]+0.087*[#  15]+0.087*[#  18]
          +0.087*[#  25]+0.087*[#  27]+0.087*[#  33]+0.087*[#  34]+0.062*[#  10]
          +0.062*[#  19]+0.062*[#  28]+0.002*[#   2]+0.002*[#   3]+0.002*[#   4]
          +0.001*[#  11]+0.001*[#  13]+0.001*[#  20]+0.001*[#  21]+0.001*[#  30]
          +0.001*[#  31]+0.001*[#  12]+0.001*[#  22]+0.001*[#  29]
    |psi|^2 = 0.999
==== e(   5) =    13.02254 eV ==== 
     psi = 0.208*[#  32]+0.156*[#  17]+0.156*[#  26]+0.085*[#   6]+0.085*[#   7]
          +0.085*[#   9]+0.052*[#  14]+0.052*[#  23]+0.019*[#  15]+0.019*[#  18]
          +0.019*[#  25]+0.019*[#  27]+0.019*[#  33]+0.019*[#  34]+0.001*[#  12]
          +0.001*[#  22]+0.001*[#  29]
    |psi|^2 = 0.999
==== e(   6) =    13.02257 eV ==== 
     psi = 0.118*[#  35]+0.116*[#   5]+0.116*[#   8]+0.092*[#  14]+0.092*[#  23]
          +0.046*[#  16]+0.046*[#  24]+0.046*[#  36]+0.039*[#  17]+0.039*[#  26]
          +0.037*[#  15]+0.037*[#  18]+0.037*[#  25]+0.037*[#  27]+0.037*[#  33]
          +0.037*[#  34]+0.013*[#  32]+0.003*[#   6]+0.003*[#   7]+0.003*[#   9]
          
    |psi|^2 = 0.999
==== e(   7) =    13.02257 eV ==== 
     psi = 0.118*[#  35]+0.116*[#   5]+0.116*[#   8]+0.092*[#  14]+0.092*[#  23]
          +0.046*[#  16]+0.046*[#  24]+0.046*[#  36]+0.039*[#  17]+0.039*[#  26]
          +0.037*[#  15]+0.037*[#  18]+0.037*[#  25]+0.037*[#  27]+0.037*[#  33]
          +0.037*[#  34]+0.013*[#  32]+0.003*[#   6]+0.003*[#   7]+0.003*[#   9]
          
    |psi|^2 = 0.999
==== e(   8) =    13.19475 eV ==== 
     psi = 0.073*[#  32]+0.072*[#   5]+0.072*[#   8]+0.072*[#  17]+0.072*[#  26]
          +0.072*[#  14]+0.072*[#  23]+0.071*[#  35]+0.035*[#   6]+0.035*[#   7]
          +0.035*[#   9]+0.035*[#  16]+0.035*[#  24]+0.035*[#  36]+0.035*[#  15]
          +0.035*[#  18]+0.035*[#  25]+0.035*[#  27]+0.035*[#  33]+0.035*[#  34]
          
    |psi|^2 = 1.000
==== e(   9) =    13.19475 eV ==== 
     psi = 0.073*[#  32]+0.072*[#   5]+0.072*[#   8]+0.072*[#  17]+0.072*[#  26]
          +0.072*[#  14]+0.072*[#  23]+0.071*[#  35]+0.035*[#   6]+0.035*[#   7]
          +0.035*[#   9]+0.035*[#  16]+0.035*[#  24]+0.035*[#  36]+0.035*[#  15]
          +0.035*[#  18]+0.035*[#  25]+0.035*[#  27]+0.035*[#  33]+0.035*[#  34]
          
    |psi|^2 = 1.000
==== e(  10) =    13.28061 eV ==== 
     psi = 0.198*[#  35]+0.149*[#  14]+0.149*[#  23]+0.067*[#  15]+0.067*[#  18]
          +0.067*[#  25]+0.067*[#  27]+0.067*[#  33]+0.067*[#  34]+0.050*[#  17]
          +0.050*[#  26]
    |psi|^2 = 1.000
==== e(  11) =    13.28158 eV ==== 
     psi = 0.112*[#   5]+0.112*[#   8]+0.111*[#  32]+0.086*[#  17]+0.086*[#  26]
          +0.051*[#  16]+0.051*[#  24]+0.051*[#  36]+0.050*[#   6]+0.050*[#   7]
          +0.050*[#   9]+0.037*[#  14]+0.037*[#  23]+0.017*[#  15]+0.017*[#  18]
          +0.017*[#  25]+0.017*[#  27]+0.017*[#  33]+0.017*[#  34]+0.012*[#  35]
          
    |psi|^2 = 1.000
==== e(  12) =    13.28158 eV ==== 
     psi = 0.112*[#   5]+0.112*[#   8]+0.111*[#  32]+0.086*[#  17]+0.086*[#  26]
          +0.051*[#  16]+0.051*[#  24]+0.051*[#  36]+0.050*[#   6]+0.050*[#   7]
          +0.050*[#   9]+0.037*[#  14]+0.037*[#  23]+0.017*[#  15]+0.017*[#  18]
          +0.017*[#  25]+0.017*[#  27]+0.017*[#  33]+0.017*[#  34]+0.012*[#  35]
          
    |psi|^2 = 1.000
==== e(  13) =    15.24967 eV ==== 
     psi = 0.052*[#   2]+0.052*[#   3]+0.052*[#   4]+0.051*[#  11]+0.051*[#  13]
          +0.051*[#  20]+0.051*[#  21]+0.051*[#  30]+0.051*[#  31]+0.045*[#  16]
          +0.045*[#  24]+0.045*[#  36]+0.034*[#  15]+0.034*[#  18]+0.034*[#  25]
          +0.034*[#  27]+0.034*[#  33]+0.034*[#  34]+0.030*[#   5]+0.030*[#   8]
          +0.030*[#  35]+0.023*[#  14]+0.023*[#  23]+0.010*[#   6]+0.010*[#   7]
          +0.010*[#   9]+0.010*[#  17]+0.010*[#  26]+0.003*[#  32]+0.001*[#  10]
          +0.001*[#  19]+0.001*[#  28]
    |psi|^2 = 0.996
==== e(  14) =    15.24967 eV ==== 
     psi = 0.052*[#   2]+0.052*[#   3]+0.052*[#   4]+0.051*[#  11]+0.051*[#  13]
          +0.051*[#  20]+0.051*[#  21]+0.051*[#  30]+0.051*[#  31]+0.045*[#  16]
          +0.045*[#  24]+0.045*[#  36]+0.034*[#  15]+0.034*[#  18]+0.034*[#  25]
          +0.034*[#  27]+0.034*[#  33]+0.034*[#  34]+0.030*[#   5]+0.030*[#   8]
          +0.030*[#  35]+0.023*[#  14]+0.023*[#  23]+0.010*[#   6]+0.010*[#   7]
          +0.010*[#   9]+0.010*[#  17]+0.010*[#  26]+0.003*[#  32]+0.001*[#  10]
          +0.001*[#  19]+0.001*[#  28]
    |psi|^2 = 0.996
==== e(  15) =    15.24974 eV ==== 
     psi = 0.116*[#  12]+0.116*[#  22]+0.116*[#  29]+0.073*[#   6]+0.073*[#   7]
          +0.073*[#   9]+0.053*[#  32]+0.040*[#  17]+0.040*[#  26]+0.025*[#  15]
          +0.025*[#  18]+0.025*[#  25]+0.025*[#  27]+0.025*[#  33]+0.025*[#  34]
          +0.014*[#  11]+0.014*[#  13]+0.014*[#  20]+0.014*[#  21]+0.014*[#  30]
          +0.014*[#  31]+0.013*[#  14]+0.013*[#  23]+0.010*[#   2]+0.010*[#   3]
          +0.010*[#   4]+0.002*[#   1]+0.002*[#  16]+0.002*[#  24]+0.002*[#  36]
          
    |psi|^2 = 0.996
==== e(  16) =    15.49709 eV ==== 
     psi = 0.069*[#   2]+0.069*[#   3]+0.069*[#   4]+0.069*[#  11]+0.069*[#  13]
          +0.069*[#  20]+0.069*[#  21]+0.069*[#  30]+0.069*[#  31]+0.069*[#  12]
          +0.069*[#  22]+0.069*[#  29]+0.011*[#   6]+0.011*[#   7]+0.011*[#   9]
          +0.011*[#  15]+0.011*[#  16]+0.011*[#  18]+0.011*[#  24]+0.011*[#  25]
          +0.011*[#  27]+0.011*[#  33]+0.011*[#  34]+0.011*[#  36]+0.008*[#   1]
          +0.007*[#  10]+0.007*[#  19]+0.007*[#  28]
    |psi|^2 = 0.991
==== e(  17) =    16.59952 eV ==== 
     psi = 0.053*[#   5]+0.053*[#   8]+0.053*[#  14]+0.053*[#  35]+0.053*[#  17]
          +0.053*[#  23]+0.053*[#  26]+0.053*[#  32]+0.048*[#  16]+0.048*[#  24]
          +0.048*[#  36]+0.048*[#   6]+0.048*[#  18]+0.048*[#  15]+0.048*[#   7]
          +0.048*[#   9]+0.048*[#  25]+0.048*[#  27]+0.048*[#  33]+0.048*[#  34]
          
    |psi|^2 = 0.999
==== e(  18) =    16.59952 eV ==== 
     psi = 0.053*[#   5]+0.053*[#   8]+0.053*[#  14]+0.053*[#  35]+0.053*[#  17]
          +0.053*[#  23]+0.053*[#  26]+0.053*[#  32]+0.048*[#  16]+0.048*[#  24]
          +0.048*[#  36]+0.048*[#   6]+0.048*[#  18]+0.048*[#  15]+0.048*[#   7]
          +0.048*[#   9]+0.048*[#  25]+0.048*[#  27]+0.048*[#  33]+0.048*[#  34]
          
    |psi|^2 = 0.999
==== e(  19) =    16.78249 eV ==== 
     psi = 0.135*[#  35]+0.101*[#  14]+0.101*[#  23]+0.099*[#  15]+0.099*[#  18]
          +0.099*[#  25]+0.099*[#  27]+0.099*[#  33]+0.099*[#  34]+0.034*[#  17]
          +0.034*[#  26]
    |psi|^2 = 0.999
==== e(  20) =    16.78364 eV ==== 
     psi = 0.076*[#  32]+0.076*[#   5]+0.076*[#   8]+0.075*[#   6]+0.075*[#   7]
          +0.075*[#   9]+0.074*[#  16]+0.074*[#  24]+0.074*[#  36]+0.059*[#  17]
          +0.059*[#  26]+0.025*[#  14]+0.025*[#  23]+0.025*[#  15]+0.025*[#  18]
          +0.025*[#  25]+0.025*[#  27]+0.025*[#  33]+0.025*[#  34]+0.008*[#  35]
          
    |psi|^2 = 0.999
==== e(  21) =    16.78364 eV ==== 
     psi = 0.076*[#  32]+0.076*[#   5]+0.076*[#   8]+0.075*[#   6]+0.075*[#   7]
          +0.075*[#   9]+0.074*[#  16]+0.074*[#  24]+0.074*[#  36]+0.059*[#  17]
          +0.059*[#  26]+0.025*[#  14]+0.025*[#  23]+0.025*[#  15]+0.025*[#  18]
          +0.025*[#  25]+0.025*[#  27]+0.025*[#  33]+0.025*[#  34]+0.008*[#  35]
          
    |psi|^2 = 0.999
==== e(  22) =    17.83246 eV ==== 
     psi = 0.056*[#   2]+0.056*[#   3]+0.056*[#   4]+0.055*[#  11]+0.055*[#  13]
          +0.055*[#  20]+0.055*[#  21]+0.055*[#  30]+0.055*[#  31]+0.040*[#   5]
          +0.040*[#   8]+0.040*[#  35]+0.033*[#  16]+0.033*[#  24]+0.033*[#  36]
          +0.031*[#  14]+0.031*[#  23]+0.029*[#  15]+0.029*[#  18]+0.029*[#  25]
          +0.029*[#  27]+0.029*[#  33]+0.029*[#  34]+0.013*[#  17]+0.013*[#  26]
          +0.004*[#  32]+0.002*[#  10]+0.002*[#  19]+0.002*[#  28]
    |psi|^2 = 0.995
==== e(  23) =    17.83246 eV ==== 
     psi = 0.056*[#   2]+0.056*[#   3]+0.056*[#   4]+0.055*[#  11]+0.055*[#  13]
          +0.055*[#  20]+0.055*[#  21]+0.055*[#  30]+0.055*[#  31]+0.040*[#   5]
          +0.040*[#   8]+0.040*[#  35]+0.033*[#  16]+0.033*[#  24]+0.033*[#  36]
          +0.031*[#  14]+0.031*[#  23]+0.029*[#  15]+0.029*[#  18]+0.029*[#  25]
          +0.029*[#  27]+0.029*[#  33]+0.029*[#  34]+0.013*[#  17]+0.013*[#  26]
          +0.004*[#  32]+0.002*[#  10]+0.002*[#  19]+0.002*[#  28]
    |psi|^2 = 0.995
==== e(  24) =    17.83261 eV ==== 
     psi = 0.125*[#  12]+0.125*[#  22]+0.125*[#  29]+0.071*[#  32]+0.068*[#   6]
          +0.068*[#   7]+0.068*[#   9]+0.053*[#  17]+0.053*[#  26]+0.018*[#  14]
          +0.018*[#  23]+0.014*[#  11]+0.014*[#  13]+0.014*[#  20]+0.014*[#  21]
          +0.014*[#  30]+0.014*[#  31]+0.013*[#   2]+0.013*[#   3]+0.013*[#   4]
          +0.011*[#  15]+0.011*[#  18]+0.011*[#  25]+0.011*[#  27]+0.011*[#  33]
          +0.011*[#  34]+0.004*[#   1]+0.003*[#  16]+0.003*[#  24]+0.003*[#  36]
          
    |psi|^2 = 0.995

Lowdin Charges: 

     Atom #   1: total charge =   9.9870, s =  0.3838, p =  0.8971, d =  8.7061, 
                 spin up      =   5.0606, s =  0.1914, 
                 spin up      =   5.0606, p =  0.4449, pz=  0.1483, px=  0.1483, py=  0.1483, 
                 spin up      =   5.0606, d =  4.4243, dz2=  0.9289, dxz=  0.8555, dyz=  0.8555, dx2-y2=  0.9289, dxy=  0.8555, 
                 spin down    =   4.9265, s =  0.1925, 
                 spin down    =   4.9265, p =  0.4521, pz=  0.1507, px=  0.1507, py=  0.1507, 
                 spin down    =   4.9265, d =  4.2819, dz2=  0.9103, dxz=  0.8204, dyz=  0.8204, dx2-y2=  0.9103, dxy=  0.8204, 
                 polarization =   0.1341, s = -0.0011, p = -0.0072, d =  0.1424, 
     Atom #   2: total charge =   9.9897, s =  0.3839, p =  0.8972, d =  8.7086, 
                 spin up      =   5.0620, s =  0.1914, 
                 spin up      =   5.0620, p =  0.4450, pz=  0.1483, px=  0.1483, py=  0.1483, 
                 spin up      =   5.0620, d =  4.4255, dz2=  0.9290, dxz=  0.8559, dyz=  0.8557, dx2-y2=  0.9290, dxy=  0.8559, 
                 spin down    =   4.9278, s =  0.1925, 
                 spin down    =   4.9278, p =  0.4522, pz=  0.1507, px=  0.1507, py=  0.1507, 
                 spin down    =   4.9278, d =  4.2830, dz2=  0.9105, dxz=  0.8208, dyz=  0.8206, dx2-y2=  0.9104, dxy=  0.8208, 
                 polarization =   0.1342, s = -0.0011, p = -0.0072, d =  0.1425, 
     Atom #   3: total charge =   9.9897, s =  0.3839, p =  0.8972, d =  8.7086, 
                 spin up      =   5.0620, s =  0.1914, 
                 spin up      =   5.0620, p =  0.4450, pz=  0.1483, px=  0.1483, py=  0.1483, 
                 spin up      =   5.0620, d =  4.4255, dz2=  0.9290, dxz=  0.8557, dyz=  0.8559, dx2-y2=  0.9290, dxy=  0.8559, 
                 spin down    =   4.9278, s =  0.1925, 
                 spin down    =   4.9278, p =  0.4522, pz=  0.1507, px=  0.1507, py=  0.1507, 
                 spin down    =   4.9278, d =  4.2830, dz2=  0.9105, dxz=  0.8206, dyz=  0.8208, dx2-y2=  0.9104, dxy=  0.8208, 
                 polarization =   0.1342, s = -0.0011, p = -0.0072, d =  0.1425, 
     Atom #   4: total charge =   9.9897, s =  0.3839, p =  0.8972, d =  8.7086, 
                 spin up      =   5.0620, s =  0.1914, 
                 spin up      =   5.0620, p =  0.4450, pz=  0.1483, px=  0.1483, py=  0.1483, 
                 spin up      =   5.0620, d =  4.4255, dz2=  0.9290, dxz=  0.8559, dyz=  0.8559, dx2-y2=  0.9290, dxy=  0.8557, 
                 spin down    =   4.9278, s =  0.1925, 
                 spin down    =   4.9278, p =  0.4522, pz=  0.1507, px=  0.1507, py=  0.1507, 
                 spin down    =   4.9278, d =  4.2830, dz2=  0.9104, dxz=  0.8208, dyz=  0.8208, dx2-y2=  0.9105, dxy=  0.8206, 
                 polarization =   0.1342, s = -0.0011, p = -0.0072, d =  0.1425, 
     Spilling Parameter:   0.0011

     PROJWFC      :      0.81s CPU      1.14s WALL


   This run was terminated on:  15: 9: 1  11Jun2023            

=------------------------------------------------------------------------------=
   JOB DONE.
=------------------------------------------------------------------------------=
