
     Program PWSCF v.7.2 starts on 11Jun2023 at 15: 6:20 

     This program is part of the open-source Quantum ESPRESSO suite
     for quantum simulation of materials; please cite
         "P. Giannozzi et al., J. Phys.:Condens. Matter 21 395502 (2009);
         "P. Giannozzi et al., J. Phys.:Condens. Matter 29 465901 (2017);
         "P. Giannozzi et al., J. Chem. Phys. 152 154105 (2020);
          URL http://www.quantum-espresso.org", 
     in publications or presentations arising from this work. More details at
     http://www.quantum-espresso.org/quote

     Parallel version (MPI), running on     8 processors

     MPI processes distributed on     1 nodes
     15625 MiB available memory on the printing compute node when the environment starts

     Waiting for input...
     Reading input from standard input
Warning: card &CELL ignored
Warning: card / ignored

     Current dimensions of program PWSCF are:
     Max number of different atomic species (ntypx) = 10
     Max number of k-points (npk) =  40000
     Max angular momentum in pseudopotentials (lmaxx) =  4
     file Pt.pbe-n-kjpaw_psl.1.0.0.UPF: wavefunction(s)  6S 5D renormalized
     Found identity + (  0.0000 -0.5000 -0.5000) symmetry
     This is a supercell, fractional translations are disabled
     Message from routine setup:
     using ibrav=0 with symmetry is DISCOURAGED, use correct ibrav instead

     R & G space division:  proc/nbgrp/npool/nimage =       8
     Subspace diagonalization in iterative solution of the eigenvalue problem:
     a serial algorithm will be used


     Parallelization info
     --------------------
     sticks:   dense  smooth     PW     G-vecs:    dense   smooth      PW
     Min          54      54     17                  888      888     151
     Max          55      55     18                  893      893     154
     Sum         437     437    137                 7123     7123    1213

     Using Slab Decomposition


     Title: 
     Pt                                                                         


     bravais-lattice index     =            0
     lattice parameter (alat)  =       7.5200  a.u.
     unit-cell volume          =     425.2524 (a.u.)^3
     number of atoms/cell      =            4
     number of atomic types    =            1
     number of electrons       =        40.00
     number of Kohn-Sham states=           24
     kinetic-energy cutoff     =      25.0000  Ry
     charge density cutoff     =     100.0000  Ry
     scf convergence threshold =      1.0E-06
     mixing beta               =       0.7000
     number of iterations used =            8  plain     mixing
     Exchange-correlation= SLA  PW   PBX  PBC
                           (   1   4   3   4   0   0   0)

     celldm(1)=   7.519961  celldm(2)=   0.000000  celldm(3)=   0.000000
     celldm(4)=   0.000000  celldm(5)=   0.000000  celldm(6)=   0.000000

     crystal axes: (cart. coord. in units of alat)
               a(1) = (   1.000000   0.000000   0.000000 )  
               a(2) = (   0.000000   1.000000   0.000000 )  
               a(3) = (   0.000000   0.000000   1.000000 )  

     reciprocal axes: (cart. coord. in units 2 pi/alat)
               b(1) = (  1.000000  0.000000  0.000000 )  
               b(2) = (  0.000000  1.000000  0.000000 )  
               b(3) = (  0.000000  0.000000  1.000000 )  


     PseudoPot. # 1 for Pt read from file:
     /home/hham/.pseudopot/Pt.pbe-n-kjpaw_psl.1.0.0.UPF
     MD5 check sum: 2c88029be45ba2aaa78ebf6465986627
     Pseudo is Projector augmented-wave + core cor, Zval = 10.0
     Generated using "atomic" code by A. Dal Corso  v.5.1.2
     Shape of augmentation charge: PSQ
     Using radial grid of 1277 points,  6 beta functions with: 
                l(1) =   0
                l(2) =   0
                l(3) =   1
                l(4) =   1
                l(5) =   2
                l(6) =   2
     Q(r) pseudized with 0 coefficients 


     atomic species   valence    mass     pseudopotential
        Pt            10.00   195.08400     Pt( 1.00)

     Starting magnetic structure 
     atomic species   magnetization
        Pt           1.000

     48 Sym. Ops., with inversion, found



   Cartesian axes

     site n.     atom                  positions (alat units)
         1           Pt  tau(   1) = (   0.0000000   0.0000000   0.0000000  )
         2           Pt  tau(   2) = (   0.0000000   0.5000000   0.5000000  )
         3           Pt  tau(   3) = (   0.5000000   0.0000000   0.5000000  )
         4           Pt  tau(   4) = (   0.5000000   0.5000000   0.0000000  )

     number of k points=     4  Methfessel-Paxton smearing, width (Ry)=  0.0100
                       cart. coord. in units 2pi/alat
        k(    1) = (   0.0000000   0.0000000   0.0000000), wk =   0.0370370
        k(    2) = (   0.0000000   0.0000000   0.3333333), wk =   0.2222222
        k(    3) = (   0.0000000   0.3333333   0.3333333), wk =   0.4444444
        k(    4) = (   0.3333333   0.3333333   0.3333333), wk =   0.2962963

     Dense  grid:     7123 G-vectors     FFT dimensions: (  24,  24,  24)

     Estimated max dynamical RAM per process >       4.73 MB

     Estimated total dynamical RAM >      37.82 MB
     Generating pointlists ...
     new r_m :   0.2917 (alat units)  2.1934 (a.u.) for type    1

     Initial potential from superposition of free atoms

     starting charge      39.9993, renormalised to      40.0000
     Starting wfcs are   36 randomized atomic wfcs
     Checking if some PAW data can be deallocated... 

     total cpu time spent up to now is        0.5 secs

     Self-consistent Calculation

     iteration #  1     ecut=    25.00 Ry     beta= 0.70
     Davidson diagonalization with overlap
     ethr =  1.00E-02,  avg # of iterations =  2.0

     total cpu time spent up to now is        0.8 secs

     total energy              =   -2988.33110520 Ry
     estimated scf accuracy    <       1.81142442 Ry

     total magnetization       =     7.11 Bohr mag/cell
     absolute magnetization    =     7.12 Bohr mag/cell

     iteration #  2     ecut=    25.00 Ry     beta= 0.70
     Davidson diagonalization with overlap
     ethr =  4.53E-03,  avg # of iterations =  1.1

     total cpu time spent up to now is        1.1 secs

     total energy              =   -2989.12105283 Ry
     estimated scf accuracy    <       0.32874323 Ry

     total magnetization       =     2.75 Bohr mag/cell
     absolute magnetization    =     3.16 Bohr mag/cell

     iteration #  3     ecut=    25.00 Ry     beta= 0.70
     Davidson diagonalization with overlap
     ethr =  8.22E-04,  avg # of iterations =  1.5

     total cpu time spent up to now is        1.3 secs

     total energy              =   -2989.19177383 Ry
     estimated scf accuracy    <       0.02103148 Ry

     total magnetization       =     1.24 Bohr mag/cell
     absolute magnetization    =     1.65 Bohr mag/cell

     iteration #  4     ecut=    25.00 Ry     beta= 0.70
     Davidson diagonalization with overlap
     ethr =  5.26E-05,  avg # of iterations =  4.9

     total cpu time spent up to now is        1.7 secs

     total energy              =   -2989.20670877 Ry
     estimated scf accuracy    <       0.01310358 Ry

     total magnetization       =     0.75 Bohr mag/cell
     absolute magnetization    =     0.97 Bohr mag/cell

     iteration #  5     ecut=    25.00 Ry     beta= 0.70
     Davidson diagonalization with overlap
     ethr =  3.28E-05,  avg # of iterations =  2.2

     total cpu time spent up to now is        2.0 secs

     total energy              =   -2989.21047585 Ry
     estimated scf accuracy    <       0.00073754 Ry

     total magnetization       =     0.81 Bohr mag/cell
     absolute magnetization    =     0.99 Bohr mag/cell

     iteration #  6     ecut=    25.00 Ry     beta= 0.70
     Davidson diagonalization with overlap
     ethr =  1.84E-06,  avg # of iterations =  6.2

     total cpu time spent up to now is        2.4 secs

     total energy              =   -2989.21134527 Ry
     estimated scf accuracy    <       0.00005491 Ry

     total magnetization       =     0.82 Bohr mag/cell
     absolute magnetization    =     0.91 Bohr mag/cell

     iteration #  7     ecut=    25.00 Ry     beta= 0.70
     Davidson diagonalization with overlap
     ethr =  1.37E-07,  avg # of iterations =  5.0

     total cpu time spent up to now is        2.7 secs

     total energy              =   -2989.21142780 Ry
     estimated scf accuracy    <       0.00000803 Ry

     total magnetization       =     0.79 Bohr mag/cell
     absolute magnetization    =     0.84 Bohr mag/cell

     iteration #  8     ecut=    25.00 Ry     beta= 0.70
     Davidson diagonalization with overlap
     ethr =  2.01E-08,  avg # of iterations =  4.4

     total cpu time spent up to now is        3.1 secs

     total energy              =   -2989.21143841 Ry
     estimated scf accuracy    <       0.00000274 Ry

     total magnetization       =     0.76 Bohr mag/cell
     absolute magnetization    =     0.80 Bohr mag/cell

     iteration #  9     ecut=    25.00 Ry     beta= 0.70
     Davidson diagonalization with overlap
     ethr =  6.85E-09,  avg # of iterations =  4.5

     Magnetic moment per site  (integrated on atomic sphere of radius R)
     atom   1 (R=0.292)  charge=  8.1821  magn=  0.1833
     atom   2 (R=0.292)  charge=  8.1818  magn=  0.1833
     atom   3 (R=0.292)  charge=  8.1818  magn=  0.1833
     atom   4 (R=0.292)  charge=  8.1818  magn=  0.1833

     total cpu time spent up to now is        3.4 secs

     End of self-consistent calculation

 ------ SPIN UP ------------


          k = 0.0000 0.0000 0.0000 (   895 PWs)   bands (ev):

     6.8936  10.0231  10.0231  10.0233  10.4525  10.4525  10.4525  13.0827
    13.0827  13.0827  15.0758  15.0758  16.5938  16.5938  16.5938  17.0494
    17.0494  17.0494  17.0497  17.0497  17.0497  18.5396  18.5396  18.5396

          k = 0.0000 0.0000 0.3333 (   884 PWs)   bands (ev):

     8.2456  10.2499  10.9151  10.9153  11.0098  11.3186  11.3186  12.3035
    13.7960  13.7960  13.8213  13.8213  14.2464  14.6878  15.3420  15.3420
    15.4255  15.6644  15.6644  16.1819  17.0539  17.0542  22.5368  22.5370

          k = 0.0000 0.3333 0.3333 (   886 PWs)   bands (ev):

     9.3541  11.1604  11.2650  11.2651  11.6789  11.6790  12.0729  12.2990
    12.5866  12.5868  13.1800  13.3772  14.0281  14.2999  14.8601  15.1564
    15.1566  15.6576  15.6577  16.0208  16.1887  18.5032  18.5034  20.8824

          k = 0.3333 0.3333 0.3333 (   922 PWs)   bands (ev):

     9.5553  10.4698  10.4698  10.4698  12.4931  12.4931  12.4933  13.2691
    13.2691  13.5838  13.6614  13.6615  13.6615  13.7509  13.7509  13.7510
    15.8386  15.8386  16.6875  16.6875  16.6876  19.0285  19.0285  19.0285

 ------ SPIN DOWN ----------


          k = 0.0000 0.0000 0.0000 (   895 PWs)   bands (ev):

     6.9121  10.1076  10.1076  10.1078  10.5445  10.5445  10.5445  13.1971
    13.1971  13.1971  15.2155  15.2155  16.7437  16.7437  16.7438  17.1900
    17.1900  17.1900  17.1903  17.1903  17.1903  18.5426  18.5426  18.5426

          k = 0.0000 0.0000 0.3333 (   884 PWs)   bands (ev):

     8.2648  10.3118  11.0042  11.0044  11.1056  11.4098  11.4098  12.4098
    13.9123  13.9123  13.9126  13.9126  14.3747  14.7505  15.4738  15.4739
    15.5673  15.7909  15.7909  16.3288  17.1946  17.1949  22.5846  22.5846

          k = 0.0000 0.3333 0.3333 (   886 PWs)   bands (ev):

     9.3778  11.2525  11.3275  11.3276  11.7726  11.7727  12.1548  12.3994
    12.6843  12.6844  13.2691  13.4909  14.1479  14.4305  14.9916  15.2820
    15.2821  15.7854  15.7855  16.1538  16.3232  18.6114  18.6116  20.9493

          k = 0.3333 0.3333 0.3333 (   922 PWs)   bands (ev):

     9.6031  10.5417  10.5417  10.5417  12.5989  12.5989  12.5990  13.3882
    13.3882  13.6423  13.7404  13.7405  13.7405  13.8727  13.8727  13.8728
    15.9758  15.9758  16.8304  16.8304  16.8306  19.1093  19.1093  19.1093

     the Fermi energy is    16.7352 ev

!    total energy              =   -2989.21144990 Ry
     total all-electron energy =   -147309.963080 Ry
     estimated scf accuracy    <       0.00000051 Ry
     smearing contrib. (-TS)   =      -0.00090190 Ry
     internal energy E=F+TS    =   -2989.21054800 Ry

     The total energy is F=E-TS. E is the sum of the following terms:
     one-electron contribution =      71.35390864 Ry
     hartree contribution      =      17.77622883 Ry
     xc contribution           =     -95.56261361 Ry
     ewald contribution        =    -243.87690214 Ry
     one-center paw contrib.   =   -2738.90116972 Ry

     total magnetization       =     0.72 Bohr mag/cell
     absolute magnetization    =     0.76 Bohr mag/cell

     convergence has been achieved in   9 iterations

     Writing all to output data dir ./Pt.save/

     init_run     :      0.33s CPU      0.33s WALL (       1 calls)
     electrons    :      2.79s CPU      2.95s WALL (       1 calls)

     Called by init_run:
     wfcinit      :      0.03s CPU      0.03s WALL (       1 calls)
     potinit      :      0.25s CPU      0.25s WALL (       1 calls)
     hinit0       :      0.04s CPU      0.04s WALL (       1 calls)

     Called by electrons:
     c_bands      :      0.62s CPU      0.64s WALL (       9 calls)
     sum_band     :      0.13s CPU      0.13s WALL (       9 calls)
     v_of_rho     :      0.02s CPU      0.02s WALL (      10 calls)
     newd         :      0.03s CPU      0.03s WALL (      10 calls)
     PAW_pot      :      2.22s CPU      2.37s WALL (      10 calls)
     mix_rho      :      0.00s CPU      0.00s WALL (       9 calls)

     Called by c_bands:
     init_us_2    :      0.01s CPU      0.01s WALL (     152 calls)
     init_us_2:cp :      0.01s CPU      0.01s WALL (     152 calls)
     cegterg      :      0.60s CPU      0.61s WALL (      72 calls)

     Called by *egterg:
     cdiaghg      :      0.15s CPU      0.16s WALL (     327 calls)
     h_psi        :      0.36s CPU      0.37s WALL (     335 calls)
     s_psi        :      0.01s CPU      0.02s WALL (     335 calls)
     g_psi        :      0.00s CPU      0.00s WALL (     255 calls)

     Called by h_psi:
     h_psi:calbec :      0.03s CPU      0.03s WALL (     335 calls)
     vloc_psi     :      0.32s CPU      0.32s WALL (     335 calls)
     add_vuspsi   :      0.02s CPU      0.02s WALL (     335 calls)

     General routines
     calbec       :      0.04s CPU      0.04s WALL (     407 calls)
     fft          :      0.01s CPU      0.01s WALL (     208 calls)
     ffts         :      0.00s CPU      0.00s WALL (      18 calls)
     fftw         :      0.33s CPU      0.34s WALL (   12696 calls)

     Parallel routines

     PWSCF        :      3.25s CPU      3.43s WALL


   This run was terminated on:  15: 6:23  11Jun2023            

=------------------------------------------------------------------------------=
   JOB DONE.
=------------------------------------------------------------------------------=
