LAMMPS data file via write_data, version 29 Sep 2021, timestep = 277

1029 atoms
2 atom types
686 bonds
1 bond types
343 angles
1 angle types

0 24.5 xlo xhi
0 24.5 ylo yhi
0 24.5 zlo zhi

Masses

1 15.9994
2 1.008

Pair Coeffs # lj/charmm/coul/long

1 0.1553 3.166 0.1553 3.166
2 0 0 0 0

Bond Coeffs # harmonic

1 600 1

Angle Coeffs # harmonic

1 75 109.47

Atoms # full

253 85 1 -0.8476 2.648604888659801 5.177385283196134 6.008309773989412 0 0 0
679 227 1 -0.8476 3.7409270837095976 4.065658257791653 1.3927567557850982 0 0 0
680 227 2 0.4238 2.9961774994793333 3.423207293645533 1.1847514066562224 0 0 0
681 227 2 0.4238 3.883511803470747 4.000023799178647 2.401110582155302 0 0 0
865 289 1 -0.8476 1.8081806350951195 2.0867687429972426 2.782972427330047 0 0 0
866 289 2 0.4238 2.506361353392803 2.6265000976464967 3.2934380050090963 0 0 0
867 289 2 0.4238 1.7523285290050803 1.181906112967415 3.249665112745375 0 0 0
1021 341 1 -0.8476 3.7574164297220873 3.516190146758376 4.073489094638391 0 0 0
1022 341 2 0.4238 3.4132384895438235 4.118133881229847 4.82006127664655 0 0 0
1023 341 2 0.4238 4.509985726152285 2.9435890108278095 4.469079641834413 0 0 0
248 83 2 0.4238 12.834101577791918 3.3936906228214454 0.5156265263739905 0 0 0
525 175 2 0.4238 12.058036629515247 4.120309342039755 7.844561704436141 0 0 0
889 297 1 -0.8476 5.810382329494217 2.041412531448835 5.074651436088019 0 0 0
890 297 2 0.4238 6.0140355018136065 1.0429379984378644 5.1256861051038065 0 0 0
891 297 2 0.4238 6.650289011851654 2.5126276968440138 5.345964191934899 0 0 0
247 83 1 -0.8476 13.806956296528318 3.5074221906626497 0.8071071156330616 0 0 0
249 83 2 0.4238 14.351870550171455 2.856872771110751 0.26232275960079365 0 0 0
460 154 1 -0.8476 16.131965576858374 5.589925070696626 5.204301905552033 0 0 0
461 154 2 0.4238 15.585614593540873 5.3647323620768255 6.01759386202825 0 0 0
462 154 2 0.4238 15.711940629525804 5.080331656528222 4.425386938214812 0 0 0
559 187 1 -0.8476 18.09733114138236 1.2206965952287956 5.9795779462356125 0 0 0
560 187 2 0.4238 17.4270436519562 1.5169078132931921 5.258383925595275 0 0 0
779 260 2 0.4238 17.887081963156508 5.472809604731064 5.430050267764562 0 0 0
841 281 1 -0.8476 14.631586185057941 4.252498879194835 3.3413235399235237 0 0 0
842 281 2 0.4238 14.386547200373458 3.833006707509464 2.446745107316982 0 0 0
843 281 2 0.4238 14.016522327134526 5.063045938621966 3.4371709217183066 0 0 0
931 311 1 -0.8476 16.37267349919188 1.9948921439833025 4.057385093382157 0 0 0
932 311 2 0.4238 16.419617157483195 1.359567408226731 3.2638476026920222 0 0 0
933 311 2 0.4238 15.74202861871192 2.748189739088964 3.812840795134881 0 0 0
634 212 1 -0.8476 23.71305776272297 2.1361930690451065 2.0468742228948247 0 0 0
635 212 2 0.4238 23.31231826533567 3.0012584113287595 2.355944688052443 0 0 0
636 212 2 0.4238 0.21938727511367706 2.1840661184545467 2.2283789676828105 1 0 0
829 277 1 -0.8476 20.663587421738335 4.9471936044722105 3.952868985435744 0 0 0
830 277 2 0.4238 20.7094483427411 5.060282870289463 2.94066772011704 0 0 0
831 277 2 0.4238 20.425375280869183 3.9549752317011277 4.094809978747864 0 0 0
958 320 1 -0.8476 19.872434452462016 2.4379928966776223 4.120217085835766 0 0 0
959 320 2 0.4238 19.736580841768514 1.8276277426006284 3.3098246642650335 0 0 0
960 320 2 0.4238 19.37324437362452 1.99571784854404 4.879365986378755 0 0 0
547 183 1 -0.8476 0.8308938159449554 7.010886557300162 5.096903777402742 0 0 0
548 183 2 0.4238 24.351664089882618 6.712311665697679 5.077249672583127 -1 0 0
549 183 2 0.4238 0.9512540282864703 7.663480341987574 4.315189979940898 0 0 0
730 244 1 -0.8476 1.1078237318646906 8.729410884943098 3.011469438542065 0 0 0
731 244 2 0.4238 0.8639144871840084 8.419114125194683 2.091340128142355 0 0 0
732 244 2 0.4238 1.5576620397735776 9.641584286262509 2.899369959558874 0 0 0
802 268 1 -0.8476 2.311041439295927 11.115342742711315 2.4880005645148544 0 0 0
803 268 2 0.4238 2.270925844506975 11.800919941036149 1.7345115402026297 0 0 0
804 268 2 0.4238 2.850706094923724 11.530340265390292 3.22385803041729 0 0 0
328 110 1 -0.8476 11.66440579494033 8.938909267498525 3.386259797288391 0 0 0
329 110 2 0.4238 10.757224901699336 8.82912977051022 3.803989817931198 0 0 0
330 110 2 0.4238 11.51593202550816 9.116464374314766 2.3864579337268554 0 0 0
393 131 2 0.4238 12.660783360470903 7.389393585180151 3.392675095465268 0 0 0
487 163 1 -0.8476 12.95432296115505 11.341991530863988 3.0020245187801713 0 0 0
488 163 2 0.4238 12.363544547025048 11.751896094511794 2.2777939784640666 0 0 0
489 163 2 0.4238 12.53200812656961 10.451957557821412 3.2575835340923547 0 0 0
524 175 2 0.4238 11.819815636188183 4.633545042212793 6.318220864211341 0 0 0
25 9 1 -0.8476 15.420169033461809 8.418309969640834 1.1814817445228782 0 0 0
26 9 2 0.4238 14.938328428020464 7.532720980515383 1.0642245006554243 0 0 0
27 9 2 0.4238 16.3203255473997 8.2074507203029 1.6187500956597782 0 0 0
88 30 1 -0.8476 17.769784309374366 7.952384855594202 2.5052650838822106 0 0 0
89 30 2 0.4238 17.612829277935937 7.98846425765171 3.510518762687707 0 0 0
90 30 2 0.4238 18.603355163924633 8.521579930271189 2.3376037805190264 0 0 0
197 66 2 0.4238 18.277516649668502 7.540686110217393 5.707131927387532 0 0 0
198 66 2 0.4238 16.744043716562118 7.340348707447686 5.258107046217457 0 0 0
238 80 1 -0.8476 16.237731943994216 12.102726854322166 4.458302274031399 0 0 0
239 80 2 0.4238 15.380758627817544 12.630229775036733 4.5669447485196635 0 0 0
240 80 2 0.4238 16.188063440502194 11.675674706032598 3.532996059121982 0 0 0
282 94 2 0.4238 12.418290304222925 10.159324430037099 5.806496865155321 0 0 0
391 131 1 -0.8476 13.115919033399287 6.513114704080745 3.1608517940213066 0 0 0
392 131 2 0.4238 13.326086102461202 6.535254279412171 2.1690944007353323 0 0 0
918 306 2 0.4238 17.66017052363984 9.715057272636454 5.872327432653005 0 0 0
943 315 1 -0.8476 15.487742481349043 10.991125686994062 2.0788695298543427 0 0 0
944 315 2 0.4238 15.527791131265273 10.022488335317064 1.7635009976852147 0 0 0
945 315 2 0.4238 14.530835188044417 11.151899790970838 2.393759523089908 0 0 0
448 150 1 -0.8476 19.93912593500472 11.018651734887749 4.328028281186442 0 0 0
449 150 2 0.4238 19.220979147799863 10.906726401853355 5.040633657326582 0 0 0
616 206 1 -0.8476 20.04367347535708 9.382613804153818 2.2261361664114836 0 0 0
617 206 2 0.4238 19.976438064690434 10.062909328883713 2.995207130784072 0 0 0
618 206 2 0.4238 20.950668003328012 8.95629880845718 2.309414346505297 0 0 0
820 274 1 -0.8476 22.718860307418876 6.242093823613888 5.221297617444583 0 0 0
821 274 2 0.4238 22.30571661301479 6.444476697077759 6.1117546187553495 0 0 0
822 274 2 0.4238 22.019313860492534 5.731953664956217 4.681834242750147 0 0 0
223 75 1 -0.8476 4.180831244744147 15.097596479967876 1.643453745025345 0 0 0
224 75 2 0.4238 4.790578571219454 15.63453546031021 1.0522587086639783 0 0 0
225 75 2 0.4238 4.642195094039547 14.986560333903597 2.5449399563534163 0 0 0
293 98 2 0.4238 4.071425462542112 15.204027296986652 4.394887501346784 0 0 0
478 160 1 -0.8476 2.3931936515797587 13.286342569023148 0.7581645970899676 0 0 0
479 160 2 0.4238 1.4896749332319812 13.706994892857635 0.9984750529176647 0 0 0
480 160 2 0.4238 3.1025195143860667 13.95437700605245 1.0706383750785404 0 0 0
691 231 1 -0.8476 2.4858491103635894 15.830096782801952 4.090075380003554 0 0 0
692 231 2 0.4238 2.355211046766793 16.795978242102887 4.390462109551481 0 0 0
693 231 2 0.4238 2.480783849435418 15.80928644183005 3.08079371806355 0 0 0
706 236 1 -0.8476 0.4509317024534242 16.00804728770485 5.985588649076449 0 0 0
707 236 2 0.4238 1.0254859319099414 15.52560603052962 5.303459873204055 0 0 0
708 236 2 0.4238 0.7983221212207746 16.962129180278602 5.993743103107034 0 0 0
160 54 1 -0.8476 7.245175982741893 16.454699414180126 4.2226971023230595 0 0 0
162 54 2 0.4238 6.373713586789722 15.911264953789248 4.211014157631734 0 0 0
220 74 1 -0.8476 5.815172534755412 13.251772007271033 6.209358261537829 0 0 0
292 98 1 -0.8476 5.044337284830234 14.93168127624749 4.246641803098737 0 0 0
294 98 2 0.4238 5.253214030917336 14.197797989550043 4.930797112748857 0 0 0
529 177 1 -0.8476 11.121855870620484 16.375251485243293 2.2272544135999093 0 0 0
530 177 2 0.4238 11.173938366990564 17.058521365501814 1.4631842690506913 0 0 0
531 177 2 0.4238 11.845050530802867 15.679253004948214 2.048009658525687 0 0 0
670 224 1 -0.8476 12.542455143339016 13.445745033386649 6.684494733873856 0 0 0
671 224 2 0.4238 13.066870238762952 13.629754701248164 5.83424798645672 0 0 0
700 234 1 -0.8476 11.406634033846057 17.46839027640672 4.683707103184984 0 0 0
701 234 2 0.4238 10.524998695034324 17.936725504210006 4.886396506330718 0 0 0
709 237 1 -0.8476 8.45653330521748 15.728655524993087 2.0127928247413274 0 0 0
710 237 2 0.4238 8.204183214864667 15.454344732601111 1.0680527037124983 0 0 0
711 237 2 0.4238 9.458116998286105 15.914122941615 2.034241174512038 0 0 0
316 106 1 -0.8476 16.058730644444275 15.066690218466565 5.021529080124547 0 0 0
317 106 2 0.4238 16.717063999500144 14.347040189361392 4.778794294022 0 0 0
318 106 2 0.4238 15.135197682126345 14.710877424663982 4.810962258001609 0 0 0
672 224 2 0.4238 12.363189367464209 12.436655621152132 6.68314757495643 0 0 0
702 234 2 0.4238 11.304746619865487 17.046722008067945 3.7562810163322635 0 0 0
703 235 1 -0.8476 13.817074612055269 13.590815771005543 4.1927073935456365 0 0 0
704 235 2 0.4238 13.57322963473353 14.208608562351007 3.4204362283991228 0 0 0
705 235 2 0.4238 13.461465551459032 12.678086436508075 3.897965489295394 0 0 0
789 263 2 0.4238 16.251115339698615 16.73199104256965 5.449093379347195 0 0 0
809 270 2 0.4238 12.899512892594226 18.14573801363946 5.071575647702936 0 0 0
917 306 2 0.4238 17.19855180124071 11.24674531181893 5.525129850310593 0 0 0
1009 337 1 -0.8476 12.973574856903491 14.446972863553208 1.6519567737642338 0 0 0
1010 337 2 0.4238 13.653840975724451 14.614982750836209 0.9291992865138499 0 0 0
1011 337 2 0.4238 12.389544597626745 13.670349855051068 1.3369312488445675 0 0 0
373 125 1 -0.8476 22.373606342334824 16.71554183889675 5.070280771253041 0 0 0
374 125 2 0.4238 22.352479874662237 16.27885754991143 4.151721977357842 0 0 0
375 125 2 0.4238 23.241354803483567 16.430496074600015 5.513946176319823 0 0 0
388 130 1 -0.8476 0.07846110892204873 14.440813849904075 1.4668809845090476 1 0 0
389 130 2 0.4238 24.096957231698397 15.047535799642695 2.115230468747032 0 0 0
390 130 2 0.4238 23.863151494433662 14.128377696471622 0.8115248040462553 0 0 0
450 150 2 0.4238 20.400004484145164 11.894623232868394 4.493109684004927 0 0 0
514 172 1 -0.8476 20.855044897671466 18.042064450147194 2.023727889624354 0 0 0
515 172 2 0.4238 20.498493823957133 18.113925948881707 2.9732786097057886 0 0 0
516 172 2 0.4238 21.203603537103387 18.965127506371 1.8093492881591025 0 0 0
637 213 1 -0.8476 22.239288481488412 15.744401438076991 2.4421261725176553 0 0 0
638 213 2 0.4238 21.739282575052624 16.60674398739116 2.2090642148111606 0 0 0
639 213 2 0.4238 22.022478515263177 15.076665680607393 1.7154591995031276 0 0 0
133 45 1 -0.8476 5.290824538051123 20.415176583113958 5.475220851281274 0 0 0
134 45 2 0.4238 4.598557851627109 21.050694441172254 5.077409217258604 0 0 0
135 45 2 0.4238 5.533517026351432 19.761777066405706 4.7137054654594275 0 0 0
244 82 1 -0.8476 1.9635160702598113 18.27424920803794 5.288155309700099 0 0 0
245 82 2 0.4238 1.6620820114415726 19.13059163859016 4.849335791791147 0 0 0
481 161 1 -0.8476 1.5304194629653969 24.25450320781213 4.21261156551878 0 0 0
482 161 2 0.4238 1.4487075301795012 24.487040435739118 5.206490112916843 0 0 0
483 161 2 0.4238 2.226470125511834 23.52029342015045 4.1488944547679445 0 0 0
739 247 1 -0.8476 5.341087322263723 22.266752760688913 2.5283230200608418 0 0 0
740 247 2 0.4238 6.179664132707751 21.69681626391586 2.5754409181907842 0 0 0
741 247 2 0.4238 5.346572135239969 22.63356446517386 1.5828187733858106 0 0 0
817 273 1 -0.8476 3.3982946887444143 22.091576740348334 4.333772860056745 0 0 0
818 273 2 0.4238 4.138225122381519 22.29553619009594 3.6461972670417238 0 0 0
819 273 2 0.4238 2.6720341059682484 21.591384378738834 3.8071284608651466 0 0 0
868 290 1 -0.8476 1.5811673429424602 20.86665512118636 2.7669268377371483 0 0 0
869 290 2 0.4238 1.996942791069403 20.470350551520898 1.9432156800395435 0 0 0
870 290 2 0.4238 0.6502948890133626 21.18677123173271 2.4914648486630884 0 0 0
970 324 1 -0.8476 6.088707714157407 18.862371968792054 3.5032876554769166 0 0 0
971 324 2 0.4238 6.521157091915855 17.958379482451594 3.66948782199011 0 0 0
972 324 2 0.4238 6.614359513233835 19.32753494252588 2.7716301343475243 0 0 0
70 24 1 -0.8476 8.037502075361413 20.905861034183697 4.9201828274685235 0 0 0
71 24 2 0.4238 8.564832517612922 20.069020452936034 5.161345109263946 0 0 0
72 24 2 0.4238 7.094015874750186 20.754408816291612 5.250049274796971 0 0 0
161 54 2 0.4238 7.760931066282252 16.151960673453814 3.3816102283274145 0 0 0
496 166 1 -0.8476 6.835680941817843 23.989000823450368 5.390092262639066 0 0 0
497 166 2 0.4238 7.329967550827346 23.349164222950154 4.792045132697562 0 0 0
811 271 1 -0.8476 10.085726210002822 20.377094389477456 1.1467772992363183 0 0 0
812 271 2 0.4238 10.802281061298842 21.00079195925609 0.8262292058947497 0 0 0
813 271 2 0.4238 10.379377033898228 19.43736890328504 0.880165408315861 0 0 0
946 316 1 -0.8476 7.706654207154083 20.850679319925813 2.2538505776894757 0 0 0
947 316 2 0.4238 7.947982204663872 20.951838284603316 3.2427217798427965 0 0 0
948 316 2 0.4238 8.594474773801368 20.656289951319042 1.774442426066311 0 0 0
52 18 1 -0.8476 16.289017442255698 22.600464247886514 3.8658132077631353 0 0 0
53 18 2 0.4238 16.41561666209605 22.88632604057779 4.838100402038018 0 0 0
54 18 2 0.4238 16.3371071980998 21.59833393348249 3.841951353303611 0 0 0
140 47 2 0.4238 17.655151445719895 18.547511352364783 6.173167622201352 0 0 0
466 156 1 -0.8476 12.420759021935872 22.939397982549526 7.016222794560131 0 0 0
467 156 2 0.4238 11.825562404269238 22.43530751906018 7.68329560778675 0 0 0
468 156 2 0.4238 11.867442027991352 23.100727279551737 6.196398772028048 0 0 0
787 263 1 -0.8476 16.280025778564287 17.724899138286805 5.676820735407831 0 0 0
788 263 2 0.4238 15.327623590306015 18.07457736022025 5.561087795676373 0 0 0
808 270 1 -0.8476 13.74407732088576 18.660981269709936 5.326479173154934 0 0 0
810 270 2 0.4238 13.496361252275797 19.629550551807473 5.372587355876103 0 0 0
814 272 1 -0.8476 19.340623983240977 0.6058862203359535 2.2474517270629146 0 1 0
816 272 2 0.4238 18.36707589182612 0.33620637892406974 2.1313504844494253 0 1 0
985 329 1 -0.8476 16.63076185317079 0.020219426917269877 2.032444744043612 0 1 0
986 329 2 0.4238 16.40231006483403 24.108592630436522 1.1278159539446349 0 0 0
987 329 2 0.4238 16.4567459327151 23.78654809846828 2.730340805137044 0 0 0
148 50 1 -0.8476 23.515513699551008 24.16796187148013 3.102012101834933 0 0 0
149 50 2 0.4238 24.40739616841059 24.151974840604325 3.598415415951739 0 0 0
150 50 2 0.4238 23.45599061153424 0.5960419184331277 2.673703527192844 0 1 0
187 63 1 -0.8476 21.39485944088376 20.711631627045765 2.947930466322141 0 0 0
188 63 2 0.4238 21.07297615352723 21.63952920719513 3.2230151616112708 0 0 0
189 63 2 0.4238 21.087541694835814 20.062880674219944 3.673577452761367 0 0 0
298 100 1 -0.8476 20.533239597905876 18.743742546885795 4.6880498368179735 0 0 0
299 100 2 0.4238 19.806858699340726 18.822135131674795 5.400679777246014 0 0 0
300 100 2 0.4238 21.197538179707866 18.03382692112411 5.004434521258571 0 0 0
715 239 1 -0.8476 20.276855221719693 23.890222436709994 6.272114508942222 0 0 0
796 266 1 -0.8476 20.95337754202963 23.331475605043078 3.686717650460856 0 0 0
797 266 2 0.4238 20.732237453110425 23.530665811565637 4.664200050143939 0 0 0
798 266 2 0.4238 21.891931751714395 23.695176127174268 3.5205022664589873 0 0 0
815 272 2 0.4238 19.84286206210481 24.315340321766364 2.6447974653055057 0 0 0
832 278 1 -0.8476 23.639481680274475 21.78832961866863 1.8751019477059272 0 0 0
833 278 2 0.4238 23.588935072938998 22.694788611521023 2.3466333567369566 0 0 0
834 278 2 0.4238 22.82788430779839 21.255759421706298 2.197634369432037 0 0 0
255 85 2 0.4238 3.043596254867079 5.798506697653099 6.69747114886635 0 0 0
445 149 1 -0.8476 1.3841491684540241 0.24989703851591327 6.8598547258756515 0 0 0
446 149 2 0.4238 0.4467498130362983 24.49656357742677 7.19226625373561 0 -1 0
447 149 2 0.4238 1.4665114528877912 1.2648913487357907 6.981973088904592 0 0 0
541 181 1 -0.8476 1.4444753289695553 2.9358071759832587 7.082258985880215 0 0 0
542 181 2 0.4238 1.9857924852550657 3.687188709268535 6.659552911164686 0 0 0
543 181 2 0.4238 0.606329309570503 3.3434395660835614 7.449945583718886 0 0 0
606 202 2 0.4238 6.504939722210486 3.1369018001938467 13.147977018295535 0 0 0
157 53 1 -0.8476 11.321523779229842 1.6243129666980316 10.706302939183441 0 0 0
158 53 2 0.4238 10.741734797298534 2.226535600277057 11.290777352512235 0 0 0
159 53 2 0.4238 10.7142293964599 0.821554346095323 10.509442564635709 0 0 0
258 86 2 0.4238 12.160973902488847 6.05510226457555 11.69459488689768 0 0 0
605 202 2 0.4238 8.020586547978958 2.5375058126967382 13.117489660415792 0 0 0
625 209 1 -0.8476 12.909919891007707 3.0914793878363276 8.894436078921247 0 0 0
626 209 2 0.4238 13.434428948957848 3.850196855252087 9.333848497838126 0 0 0
627 209 2 0.4238 12.317525267758977 2.652066214640342 9.599114966511417 0 0 0
1005 335 2 0.4238 9.330078832878883 3.9832080516218746 12.14277188413438 0 0 0
19 7 1 -0.8476 14.676985359831532 1.5568411640668238 13.249332308299111 0 0 0
20 7 2 0.4238 14.22071771923934 0.9857782169559498 12.540950080856481 0 0 0
21 7 2 0.4238 15.655194785291373 1.64272026937165 12.96768845799719 0 0 0
256 86 1 -0.8476 12.821055511290165 5.301092403904028 11.877137634553224 0 0 0
257 86 2 0.4238 13.445498094539248 5.26634286869671 11.072356914840372 0 0 0
268 90 1 -0.8476 14.42470824116439 5.2420772890741825 9.722741047888565 0 0 0
269 90 2 0.4238 14.292050687444354 6.176894835008119 9.323314430115193 0 0 0
270 90 2 0.4238 15.346575480756673 5.2534615176878265 10.139727278746312 0 0 0
398 133 2 0.4238 17.670573578864285 3.6531487198975414 8.175922747580003 0 0 0
561 187 2 0.4238 18.197605523327237 2.0134926957330332 6.622264294384193 0 0 0
565 189 1 -0.8476 16.71774027173739 6.307733236702829 13.755240924820527 0 0 0
652 218 1 -0.8476 17.031562962507856 3.030132612219617 10.346575874659601 0 0 0
653 218 2 0.4238 17.131169216313914 2.583646120173634 11.25848685473771 0 0 0
654 218 2 0.4238 16.352642997867733 2.469013521039823 9.826982786303937 0 0 0
778 260 1 -0.8476 18.808550160947007 5.568692030278665 5.852170131447397 0 0 0
853 285 1 -0.8476 15.17594248906221 1.541535792705437 9.022051044715782 0 0 0
854 285 2 0.4238 15.107734481381415 0.629577735786715 8.570736584887163 0 0 0
855 285 2 0.4238 14.359702068661855 2.0844320705497736 8.744439765593338 0 0 0
218 73 2 0.4238 21.409229021932237 1.7838959159831702 11.560087999685921 0 0 0
219 73 2 0.4238 20.489355290333876 3.0937505073168987 11.263737568083124 0 0 0
271 91 1 -0.8476 23.04507527444466 5.798223032177132 12.655624593727223 0 0 0
273 91 2 0.4238 23.37934728941465 4.8581277406874275 12.733452222454394 0 0 0
397 133 1 -0.8476 18.368656343232736 3.4326753636790865 7.482558967550145 0 0 0
399 133 2 0.4238 18.57933784077955 4.282488425987786 6.955001103421238 0 0 0
424 142 1 -0.8476 21.27328176460335 5.8475229756288964 10.683084341321912 0 0 0
425 142 2 0.4238 20.587125417694295 5.158514012332971 10.381504310826188 0 0 0
736 246 1 -0.8476 19.59692969172591 3.8004491321534415 9.97532868575044 0 0 0
737 246 2 0.4238 19.626596438263817 3.574653627011685 8.98860224221027 0 0 0
738 246 2 0.4238 18.63551838234704 3.6017562508283305 10.26160694023744 0 0 0
780 260 2 0.4238 19.504469028184918 5.37073259563306 5.1306421950572 0 0 0
184 62 1 -0.8476 4.656987393813225 7.960697377640698 10.875162863397996 0 0 0
185 62 2 0.4238 5.366973507097316 8.195016489387005 11.548696998852952 0 0 0
186 62 2 0.4238 3.919871369724054 7.491856159251303 11.369672331906052 0 0 0
235 79 1 -0.8476 2.1469336898676414 7.896522788555692 7.320284075284946 0 0 0
236 79 2 0.4238 1.5116646165419476 8.4837631776756 7.849178908034738 0 0 0
237 79 2 0.4238 1.6538125481755859 7.618113715893443 6.470710879214748 0 0 0
254 85 2 0.4238 1.944855584173179 5.732083275519854 5.517523128758327 0 0 0
655 219 1 -0.8476 4.279204817891812 9.181525363199167 8.476595109644775 0 0 0
656 219 2 0.4238 3.588417951275905 8.638550804834331 7.9596074171971 0 0 0
657 219 2 0.4238 4.443062411559405 8.691803334239061 9.359594633125768 0 0 0
73 25 1 -0.8476 10.974425364506887 7.192898125534653 11.229883350378186 0 0 0
74 25 2 0.4238 10.95384407008528 8.209409971597315 11.309731668074408 0 0 0
75 25 2 0.4238 10.740078432134577 6.981184909044641 10.259833375847862 0 0 0
106 36 1 -0.8476 10.945473844862132 9.942853528180004 11.150762188178218 0 0 0
107 36 2 0.4238 10.194435937168459 10.590096226908374 11.331507963426297 0 0 0
108 36 2 0.4238 11.729666331210357 10.234759569012121 11.743232969641529 0 0 0
221 74 2 0.4238 5.783765510287855 12.488141699108068 6.877571397971322 0 0 0
469 157 1 -0.8476 6.051062421100656 11.142707650258483 8.02473979358445 0 0 0
470 157 2 0.4238 6.8284414455026115 10.630178886186783 7.650775550126493 0 0 0
471 157 2 0.4238 5.302174379941666 10.457455986662575 8.188734932224872 0 0 0
523 175 1 -0.8476 11.598561320090543 4.8337701812507055 7.275380354400979 0 0 0
647 216 2 0.4238 6.210173539813438 12.232769069874225 9.336086770220446 0 0 0
690 230 2 0.4238 5.864419599788499 12.080262707241257 11.758349657189767 0 0 0
724 242 1 -0.8476 10.35486509819366 6.787537161818048 8.603229660099252 0 0 0
725 242 2 0.4238 10.886559907175261 6.060048310492077 8.106469331661087 0 0 0
726 242 2 0.4238 9.384455064795421 6.5989944625852 8.424361893571565 0 0 0
844 282 1 -0.8476 11.782953488901429 9.106269183508147 8.665850058004738 0 0 0
845 282 2 0.4238 11.214031098032018 8.26647617326146 8.552045662006972 0 0 0
98 33 2 0.4238 18.206316117182144 11.420587365421294 7.6566251364793665 0 0 0
115 39 1 -0.8476 15.378341333457469 10.058292223634915 11.65963045845963 0 0 0
117 39 2 0.4238 15.798121439059559 10.859954767104501 11.186629445760781 0 0 0
196 66 1 -0.8476 17.49426549904813 8.026166105430027 5.28564994621575 0 0 0
280 94 1 -0.8476 12.222137078339054 10.780774428385968 6.567975131821212 0 0 0
281 94 2 0.4238 12.051190883841695 10.206456614134325 7.394421368839085 0 0 0
325 109 1 -0.8476 18.073213523645588 8.46261667901471 9.87816563697008 0 0 0
326 109 2 0.4238 17.971754006674033 9.46115816079323 9.897563506870538 0 0 0
327 109 2 0.4238 19.070907902034783 8.265985206339408 9.888417920585798 0 0 0
567 189 2 0.4238 16.567555642486163 6.500833431658827 12.757639957009944 0 0 0
673 225 1 -0.8476 16.58638195416882 12.261503434224142 10.56280366173825 0 0 0
674 225 2 0.4238 17.22262114704018 12.157468088238216 9.775851176327226 0 0 0
675 225 2 0.4238 17.011331236111012 12.939605409642919 11.199214545879084 0 0 0
742 248 1 -0.8476 14.198716747557816 7.818902792194052 8.919143422014727 0 0 0
743 248 2 0.4238 13.318918523193545 8.321012572987687 8.809091197786746 0 0 0
744 248 2 0.4238 14.940055525768805 8.487152746838449 8.80751842541277 0 0 0
846 282 2 0.4238 11.488514527839946 9.536666854937422 9.542939227779145 0 0 0
910 304 1 -0.8476 16.234188129539582 7.035351968448763 11.218825689168083 0 0 0
911 304 2 0.4238 17.00346289850396 7.4663907606255355 10.697679600772661 0 0 0
912 304 2 0.4238 15.462817448328003 7.680679136787495 11.14722656919944 0 0 0
916 306 1 -0.8476 17.844762661992924 10.69233223039462 6.097934951122665 0 0 0
272 91 2 0.4238 22.360868310939978 5.807057899355616 11.889423928998948 0 0 0
304 102 1 -0.8476 20.822618587028323 8.520479519287905 10.143998024789536 0 0 0
305 102 2 0.4238 21.831290297796606 8.597133491459111 10.252407022477962 0 0 0
306 102 2 0.4238 20.478596423045722 9.468794635336394 10.297794759591248 0 0 0
426 142 2 0.4238 20.945291156771603 6.768930830239323 10.408509661489429 0 0 0
433 145 1 -0.8476 0.9054172735031683 9.975701376883626 8.774113153475739 1 0 0
434 145 2 0.4238 1.8280297906259066 10.206891469946278 9.110703750250712 1 0 0
435 145 2 0.4238 0.621943283772097 10.705570875574189 8.142325747391485 1 0 0
676 226 1 -0.8476 23.358320390952017 9.5278356256077 10.660266440095395 0 0 0
677 226 2 0.4238 23.137198392797885 10.50158413715063 10.869147740376796 0 0 0
678 226 2 0.4238 24.126392969104582 9.53993281061636 9.993269579355927 0 0 0
949 317 1 -0.8476 20.122160619329126 11.098893129456473 10.47194832801179 0 0 0
950 317 2 0.4238 19.58492000896148 11.535870694091626 9.725645031083792 0 0 0
951 317 2 0.4238 21.01542115922356 11.580878561070367 10.54933027964344 0 0 0
58 20 1 -0.8476 2.162701543822801 17.607826458090102 9.113991094835116 0 0 0
59 20 2 0.4238 2.8046542989631447 18.050318590864713 8.469038068368347 0 0 0
60 20 2 0.4238 1.8375970749996802 18.323702286661845 9.759376258021684 0 0 0
109 37 1 -0.8476 1.835568572519874 15.103650688076334 8.272447431590106 0 0 0
110 37 2 0.4238 1.9198393043815425 16.04121387154809 8.680358920136126 0 0 0
111 37 2 0.4238 1.2339985568424878 15.211868527283709 7.464705283118618 0 0 0
119 40 2 0.4238 4.446606592392727 17.981382238610312 7.473256816229037 0 0 0
222 74 2 0.4238 6.464996538985942 13.944339565478533 6.569462050912248 0 0 0
358 120 1 -0.8476 4.833909336478632 16.49383946855498 12.385778608574322 0 0 0
360 120 2 0.4238 4.250705487114446 15.686821916187046 12.164022192706337 0 0 0
571 191 1 -0.8476 4.127189409504453 14.526080264123596 9.585356805698565 0 0 0
572 191 2 0.4238 3.320629648598624 14.648573890720558 8.966686961207476 0 0 0
573 191 2 0.4238 3.7270381186984474 14.454719345145202 10.526577805371772 0 0 0
199 67 1 -0.8476 7.402380212420547 15.440415785227044 6.803833343217839 0 0 0
200 67 2 0.4238 7.415655940410608 15.699198003185929 5.818875095656353 0 0 0
201 67 2 0.4238 8.091839237099354 16.041698868366602 7.262663359758353 0 0 0
395 132 2 0.4238 6.105716034119593 17.30558158604523 11.623558207164635 0 0 0
396 132 2 0.4238 6.234352256614799 18.838726555265044 11.061335332056823 0 0 0
508 170 1 -0.8476 9.38258562971496 17.793951774164764 10.603903371383263 0 0 0
509 170 2 0.4238 9.620528034085707 16.929793233144267 11.089285710859956 0 0 0
613 205 1 -0.8476 5.1987772122954246 16.608640500154856 7.96671029658434 0 0 0
614 205 2 0.4238 4.8354907715188835 15.94144951665043 8.639966553178676 0 0 0
615 205 2 0.4238 5.98659335174545 16.15254130398972 7.5143332761708805 0 0 0
631 211 1 -0.8476 9.772526362468106 15.453968137478007 11.904609857302713 0 0 0
632 211 2 0.4238 10.647857914779589 14.992737952083965 12.165318812930364 0 0 0
633 211 2 0.4238 9.347410109517604 14.89425484538463 11.15601637057615 0 0 0
646 216 1 -0.8476 6.304091990380208 12.942749336372412 10.063968313002055 0 0 0
648 216 2 0.4238 5.5389954142596025 13.60241892225146 9.904907984915265 0 0 0
667 223 1 -0.8476 12.31075114869592 17.855093017772543 11.681227058278623 0 0 0
718 240 1 -0.8476 8.827093433137161 14.122334968135894 9.747657920324626 0 0 0
719 240 2 0.4238 8.640395670896226 14.61953481401019 8.893232994662927 0 0 0
720 240 2 0.4238 7.969296966560417 13.61649980663904 9.970392434140425 0 0 0
862 288 1 -0.8476 11.925881458641452 13.64907297506685 9.388372722076145 0 0 0
863 288 2 0.4238 12.166555353011839 13.614916007388654 8.398532572469648 0 0 0
864 288 2 0.4238 10.924665941923815 13.776655031597446 9.435779473696252 0 0 0
880 294 1 -0.8476 11.888214518121455 13.786147717892566 12.246527813320487 0 0 0
882 294 2 0.4238 12.18668331027016 13.755547753453492 11.275826408936984 0 0 0
940 314 1 -0.8476 9.212311932295432 17.03868666036923 7.926123725517204 0 0 0
941 314 2 0.4238 9.34908081683012 17.42882547129682 8.857033044515923 0 0 0
942 314 2 0.4238 10.107078835677221 16.61368678730359 7.640073555141691 0 0 0
97 33 1 -0.8476 18.399395069478157 12.02566859098196 8.459464421173115 0 0 0
99 33 2 0.4238 18.44524443095583 12.963132428868775 8.097199103378152 0 0 0
319 107 1 -0.8476 14.391957544051643 14.04556862016524 10.571336856883542 0 0 0
320 107 2 0.4238 15.096784867659967 13.334488374320756 10.41242430618715 0 0 0
321 107 2 0.4238 13.615399787982462 13.869594045942584 9.939268747441405 0 0 0
413 138 2 0.4238 15.305418566919409 17.779836522905207 12.468721046877564 0 0 0
520 174 1 -0.8476 17.66325304684016 14.061452483005638 12.330005285229202 0 0 0
521 174 2 0.4238 18.528188247412153 14.593309426354185 12.275459936326481 0 0 0
522 174 2 0.4238 17.00707320753849 14.605853466207405 12.890432177268309 0 0 0
595 199 1 -0.8476 11.364164372249274 15.89551256851138 6.936687286811487 0 0 0
596 199 2 0.4238 11.543231355584528 16.428586904998127 6.088030112118385 0 0 0
597 199 2 0.4238 11.839687942057807 15.001196850021579 6.839275699325464 0 0 0
881 294 2 0.4238 12.717597121110783 13.619254948870726 12.810209717508709 0 0 0
892 298 1 -0.8476 14.423367754947579 16.257912548124178 12.091745140392852 0 0 0
893 298 2 0.4238 14.421887485441848 15.469911344597167 11.43554369502682 0 0 0
894 298 2 0.4238 13.58698383580912 16.813570985307532 11.879989563813673 0 0 0
1026 342 2 0.4238 17.46360071970108 20.077215748303985 9.957400033884173 0 0 0
82 28 1 -0.8476 22.59479884356669 12.070110222093314 11.329476263807116 0 0 0
83 28 2 0.4238 22.577396338052793 13.068320171586613 11.114363431817026 0 0 0
84 28 2 0.4238 22.765474033314764 12.019446911803113 12.335404315348732 0 0 0
850 284 1 -0.8476 22.292419920569564 14.744013244036973 11.138622899941613 0 0 0
851 284 2 0.4238 22.278794998019404 15.327710156413707 10.318716681957735 0 0 0
852 284 2 0.4238 21.43817086354889 14.939782479878748 11.669585376469358 0 0 0
13 5 1 -0.8476 6.872534740855359 22.203932324528623 11.50544437343012 0 0 0
15 5 2 0.4238 7.044221418735337 21.848065218304225 12.448479135302836 0 0 0
118 40 1 -0.8476 3.913792160988094 18.827932380133838 7.214083534578626 0 0 0