ITEM: TIMESTEP
0
ITEM: NUMBER OF ATOMS
1029
ITEM: BOX BOUNDS pp pp pp
0.0000000000000000e+00 2.4500000000000000e+01
0.0000000000000000e+00 2.4500000000000000e+01
0.0000000000000000e+00 2.4500000000000000e+01
ITEM: ATOMS id type xu yu zu
253 1 4.3104 5.59996 6.10927
679 1 2.63042 5.15025 1.23314
680 2 1.7307 4.90415 1.59363
681 2 3.13571 4.31882 1.00204
865 1 1.76606 2.76486 2.53843
866 2 2.07374 3.44601 3.20279
867 2 1.00225 2.24605 2.92239
1021 1 4.50336 3.93883 2.94836
1022 2 4.037 4.58369 3.55388
1023 2 4.91227 3.20646 3.49279
248 2 11.7768 2.61242 1.5233
525 2 11.274 5.6694 5.75858
889 1 8.32529 2.89723 4.60635
890 2 8.6426 2.19048 5.23866
891 2 8.04332 3.70517 5.12377
247 1 12.2628 1.88442 2.00682
249 2 12.6947 1.27395 1.34289
460 1 16.196 5.5996 5.04169
461 2 15.7336 5.46427 5.91793
462 2 15.5197 5.81676 4.33786
559 1 17.572 1.66925 5.84247
560 2 16.6813 2.11375 5.93735
779 2 17.9605 4.29791 5.49153
841 1 12.7786 4.83199 3.08138
842 2 13.1367 3.95559 3.40337
843 2 12.8421 5.50797 3.81556
931 1 16.0098 3.45356 4.17238
932 2 15.2246 2.85486 4.33069
933 2 16.0591 3.68899 3.20174
634 1 23.2817 3.38878 2.43346
635 2 22.9137 3.9802 1.71597
636 2 23.6071 2.53492 2.02725
829 1 20.781 5.14443 4.68351
830 2 19.9184 5.60429 4.47298
831 2 20.6017 4.18718 4.91051
958 1 19.5529 1.70151 3.96687
959 2 18.8788 1.00407 4.21005
960 2 19.1433 2.60873 4.0627
547 1 1.96225 7.22968 5.36688
548 2 1.39726 7.38511 4.55655
549 2 2.92508 7.19118 5.09951
730 1 2.24388 8.57786 1.00053
731 2 1.45515 8.27467 1.5353
732 2 2.87611 9.07727 1.59287
802 1 3.79844 11.0242 2.53289
803 2 3.49055 11.3239 1.62989
804 2 3.27401 11.5003 3.2388
328 1 10.4697 9.49134 3.87605
329 2 9.51569 9.23964 4.03893
330 2 10.5528 9.91749 2.97522
393 2 11.8392 7.76689 3.60873
487 1 11.4223 12.0965 2.78415
488 2 11.995 11.566 2.15921
489 2 11.6394 11.8473 3.72796
524 2 11.7776 7.2035 6.00256
25 1 15.4765 8.55307 1.30655
26 2 14.5761 8.11988 1.26699
27 2 16.1758 7.89439 1.02875
88 1 17.0217 7.66797 3.0302
89 2 16.3675 7.88814 3.75377
90 2 17.8966 7.40885 3.43939
197 2 18.1309 7.28215 5.723
198 2 16.5623 7.68881 5.92489
238 1 16.4798 12.122 4.2626
239 2 15.9093 11.4794 4.77412
240 2 17.1522 11.6148 3.72356
282 2 12.6916 10.2711 5.4555
391 1 12.7618 7.74043 3.22388
392 2 12.7301 7.33625 2.30975
918 2 18.2091 10.8928 5.71014
943 1 15.152 10.6056 2.00483
944 2 15.7953 10.2416 2.67838
945 2 14.4316 11.1163 2.47404
448 1 20.3781 11.6223 4.39032
449 2 20.5869 11.3398 5.32658
616 1 20.8413 8.53052 1.84572
617 2 19.9973 8.89999 2.23448
618 2 21.2042 9.17025 1.16819
820 1 22.0998 6.87723 5.34316
821 2 21.655 7.33907 4.5758
822 2 22.7399 6.19268 4.99444
223 1 4.6409 16.1846 2.52834
224 2 4.18576 15.7876 1.73133
225 2 4.92501 15.4534 3.14854
293 2 5.51182 15.7101 5.38789
478 1 2.3172 13.1238 1.12258
479 2 1.49193 13.291 1.66197
480 2 3.04519 13.7375 1.42814
691 1 3.3011 15.4995 5.003
692 2 3.04574 16.4649 4.95103
693 2 2.86682 14.9991 4.25401
706 1 1.00669 16.5528 5.74574
707 2 1.03593 15.6764 5.26496
708 2 1.02408 17.2989 5.08013
160 1 8.47404 17.5472 4.86711
162 2 7.77453 17.6808 4.16509
220 1 6.71324 12.9324 5.97245
292 1 6.23837 16.2696 4.98901
294 2 6.84723 15.6891 4.44828
529 1 10.9676 14.82 1.84841
530 2 11.494 15.2815 1.13427
531 2 11.5935 14.4163 2.51562
670 1 11.7106 13.8141 5.52111
671 2 12.0618 14.3368 4.74432
700 1 11.7712 17.0476 3.60128
701 2 11.536 17.8412 4.16237
709 1 8.57226 16.4687 1.87917
710 2 7.94707 16.1142 2.57449
711 2 9.50757 16.4528 2.23265
316 1 16.8683 14.9519 4.32629
317 2 17.5311 14.5739 4.97269
318 2 16.2134 15.5258 4.81781
672 2 12.2888 13.0123 5.6721
702 2 12.4416 16.4846 4.08464
703 1 14.4508 13.5989 4.18054
704 2 14.4856 14.2711 3.441
705 2 13.7236 12.9377 3.99607
789 2 16.7875 18.2984 4.05669
809 2 14.3032 18.2733 4.78951
917 2 18.3054 12.4983 5.42796
1009 1 13.4912 13.9481 1.52061
1010 2 14.1527 14.6545 1.26865
1011 2 13.69 13.1093 1.01385
373 1 22.1807 16.4362 6.10149
374 2 21.8842 16.1002 5.20753
375 2 22.8939 17.1262 5.9784
388 1 23.0504 14.432 1.91004
389 2 22.4178 14.8955 2.53054
390 2 23.0074 14.8617 1.00808
450 2 20.8108 12.5044 4.20397
514 1 19.5377 17.7194 1.50129
515 2 20.4656 17.4005 1.69453
516 2 19.0676 17.918 2.36129
637 1 19.9246 14.44 3.64773
638 2 20.4838 15.2687 3.66941
639 2 19.3157 14.4694 2.85498
133 1 5.81953 21.1727 4.91425
134 2 6.07336 21.7371 4.12879
135 2 5.86768 20.2067 4.66
244 1 2.8837 18.8155 5.77531
245 2 2.23782 19.1463 5.08726
481 1 1.29941 23.2391 3.37285
482 2 1.00191 23.0262 4.30354
483 2 2.09284 23.8468 3.40735
739 1 4.60688 23.4368 1.81897
740 2 5.28658 22.9429 1.27662
741 2 4.04808 24.0055 1.21539
817 1 3.74284 22.5304 4.42413
818 2 4.16749 23.3169 3.97577
819 2 3.25723 21.9811 3.74406
868 1 2.59432 21.9372 1.59267
869 2 2.78867 21.0579 1.15788
870 2 1.99673 22.4773 1.00001
970 1 4.33129 18.6896 2.71224
971 2 3.98956 18.3781 3.59891
972 2 5.22826 19.1153 2.83158
70 1 8.29645 21.7635 5.27391
71 2 8.95056 21.3245 5.88988
72 2 7.61588 22.2621 5.81081
161 2 8.9308 18.4173 5.05242
496 1 9.02689 24.3943 5.34865
497 2 9.16752 23.6789 4.66425
811 1 10.2639 20.2571 1.98508
812 2 11.2185 20.0251 2.17156
813 2 10.1349 20.3714 1.00003
946 1 8.70957 22.7957 2.05813
947 2 8.53582 22.2545 2.88088
948 2 9.49146 22.4127 1.56622
52 1 16.4964 21.8605 5.06609
53 2 17.2961 21.6871 4.49127
54 2 15.7058 21.3754 4.69243
140 2 16.7393 19.599 5.88785
466 1 13.0314 23.1632 5.09333
467 2 12.8453 22.4675 5.78719
468 2 13.2227 24.037 5.54035
787 1 16.6895 18.6235 3.11611
788 2 16.4278 19.5886 3.12262
808 1 14.4851 18.4495 5.7569
810 2 13.8784 19.1742 6.08352
814 1 18.3041 23.877 2.95365
816 2 17.362 24.2096 2.91122
985 1 14.8147 24.197 3.27813
986 2 15.1839 23.8245 2.42673
987 2 15.214 23.7109 4.05548
148 1 22.2719 23.8836 3.24743
149 2 23.0374 24.1294 2.65281
150 2 22.3364 24.3968 4.10324
187 1 19.4099 20.4593 2.75347
188 2 18.4877 20.8448 2.72085
189 2 19.5614 20.0326 3.64507
298 1 21.6055 19.5784 5.68255
299 2 22.152 20.1157 5.04019
300 2 21.4464 18.6668 5.30354
715 1 20.6183 22.5411 6.10532
796 1 20.2883 22.9814 3.51027
797 2 20.3544 22.0755 3.92848
798 2 20.0891 23.6608 4.21647
815 2 18.4213 23.1241 2.30595
832 1 22.2595 21.4088 2.20614
833 2 22.4965 21.3632 3.17658
834 2 21.4704 20.8209 2.02772
255 2 5.11862 5.10119 6.42233
445 1 1.86104 1.50354 9.84915
446 2 1.0701 1.5842 10.4557
447 2 2.68265 1.33432 10.3935
541 1 2.35305 3.90308 7.49328
542 2 3.21137 3.79938 6.99076
543 2 1.60148 4.03181 6.84631
606 2 6.0462 2.56247 12.2191
157 1 10.2427 1.30017 10.1164
158 2 11.0066 1.59882 10.6885
159 2 9.48722 1.00042 10.699
258 2 12.025 5.12687 11.1444
605 2 7.50799 1.83669 12.1639
625 1 11.8212 3.55021 8.78971
626 2 11.7077 4.33725 8.18333
627 2 11.1735 3.61799 9.5486
1005 2 9.51717 3.38153 12.2102
19 1 13.9973 1.91397 11.9853
20 2 13.5715 1.05007 11.7163
21 2 14.618 2.21878 11.2628
256 1 12.5298 5.5786 11.88
257 2 13.5083 5.5571 11.6749
268 1 13.4528 5.13496 9.4554
269 2 13.1339 5.88472 8.8756
270 2 13.8962 4.44065 8.88857
398 2 17.9069 2.28678 9.45258
561 2 17.7055 1.02599 6.59639
565 1 16.0699 5.85862 11.9684
652 1 16.0934 4.26649 10.2549
653 2 16.6308 3.9422 11.0333
654 2 15.7414 3.48272 9.74321
778 1 18.2932 4.30272 6.43455
853 1 15.3181 1.81128 8.34539
854 2 15.9649 1.09631 8.08
855 2 15.1431 2.40941 7.56334
218 2 22.2724 1.00024 12.1058
219 2 21.2512 2.25076 11.8608
271 1 23.8651 5.40901 10.8697
273 2 23.542 4.61659 10.3524
397 1 18.397 1.83992 8.70417
399 2 18.6423 2.52006 8.01334
424 1 20.9787 6.06455 8.97106
425 2 21.3668 5.52038 9.71485
736 1 19.7385 3.4492 10.127
737 2 20.6702 3.14456 9.92886
738 2 19.4915 4.19233 9.50513
780 2 19.0776 4.91858 6.5081
184 1 4.76079 6.92795 10.1797
185 2 4.63807 6.46816 11.0592
186 2 3.95886 6.76658 9.60444
235 1 1.00227 9.26854 7.07572
236 2 1.36215 9.90731 7.75576
237 2 1.46428 8.38663 7.16948
254 2 3.99616 6.21366 6.83359
655 1 4.40294 10.1172 7.49039
656 2 3.45937 10.2505 7.18725
657 2 4.6317 9.14458 7.45013
73 1 10.2889 7.01647 11.698
74 2 9.84337 7.84565 12.0356
75 2 9.96169 6.81454 10.7749
106 1 10.2359 10.7026 10.2416
107 2 9.59855 10.604 11.0058
108 2 10.8144 11.5044 10.3912
221 2 6.74333 12.0103 6.35835
469 1 6.83849 10.0233 8.75764
470 2 6.55535 9.08913 8.54048
471 2 6.45136 10.6538 8.08491
523 1 11.4304 6.37769 6.44696
647 2 7.00875 12.0533 9.68801
690 2 7.66428 11.9466 12.0211
724 1 9.64638 7.51507 8.09966
725 2 9.65126 7.49496 7.09987
726 2 8.99974 6.8342 8.44357
844 1 11.5623 9.44047 9.04101
845 2 11.4421 8.58464 9.54411
98 2 16.8597 12.2167 7.75182
115 1 14.565 10.5958 11.5626
117 2 14.8396 9.66491 11.3216
196 1 17.3656 7.28929 6.36661
280 1 13.1204 9.73576 6.18321
281 2 13.6696 10.3391 6.76148
325 1 17.2701 9.46954 10.1598
326 2 16.9115 8.69921 10.6871
327 2 18.2659 9.49796 10.2464
567 2 15.622 6.7518 11.9289
673 1 16.4887 11.6171 10.4409
674 2 15.8391 11.4312 9.70376
675 2 17.3781 11.8536 10.0496
742 1 13.6642 8.52011 8.50443
743 2 13.2941 7.83586 7.8761
744 2 14.5637 8.81588 8.18293
846 2 12.3024 9.96981 9.45579
910 1 15.6184 6.51631 9.03768
911 2 16.4676 7.03184 8.9234
912 2 15.2935 6.20679 8.14399
916 1 18.3035 11.7925 6.13633
272 2 23.5921 6.24813 10.3993
304 1 20.9249 8.66829 9.49984
305 2 21.5804 7.99127 9.83438
306 2 20.7588 9.35127 10.2111
426 2 20.0501 6.34566 9.2132
433 1 24.3914 10.6702 8.1752
434 2 24.2982 11.423 8.82675
435 2 23.497 10.2508 8.02017
676 1 23.0217 9.72398 10.1027
677 2 22.7821 10.6362 10.435
678 2 23.9496 9.49512 10.397
949 1 19.9422 11.7799 11.3261
950 2 19.5362 11.2782 10.5622
951 2 20.9211 11.9016 11.1622
58 1 3.13221 16.6084 10.0404
59 2 3.84067 17.1121 9.54603
60 2 2.37947 17.2268 10.266
109 1 1.01636 15.552 8.79202
110 2 1.51442 15.2012 9.58504
111 2 1.46355 16.3817 8.45785
119 2 4.69997 17.9404 7.70026
222 2 5.938 13.4309 6.36034
358 1 4.55894 16.8874 11.7898
360 2 4.63547 15.9462 12.1188
571 1 4.06742 14.6608 8.32878
572 2 3.42154 15.4179 8.23033
573 2 4.53763 14.736 9.20812
199 1 7.85048 14.5302 6.9763
200 2 7.99976 15.4873 6.72809
201 2 7.31735 14.4842 7.82108
395 2 6.44267 18.2823 12.21
396 2 6.25577 17.7523 10.6768
508 1 8.69869 17.4779 10.7853
509 2 9.56467 17.0034 10.6273
613 1 6.60979 17.2048 8.57649
614 2 6.25446 16.2717 8.63302
615 2 7.34883 17.2398 7.90374
631 1 9.69277 15.398 12.1361
632 2 10.6874 15.501 12.1282
633 2 9.45524 14.4425 11.9615
646 1 6.68338 12.8379 10.2157
648 2 6.34305 13.5413 9.59166
667 1 10.732 18.0653 12.2255
718 1 9.43101 14.6789 8.66028
719 2 10.2582 14.9871 8.1903
720 2 9.03794 15.4398 9.17657
862 1 11.1847 12.2819 8.26268
863 2 11.8649 12.9913 8.07828
864 2 10.3473 12.7049 8.60896
880 1 11.6394 13.8479 11.0486
882 2 11.4767 14.231 10.1393
940 1 10.5702 17.159 8.3028
941 2 9.65029 17.5158 8.46547
942 2 11.1499 17.3592 9.09269
97 1 16.1962 12.9171 7.48877
99 2 16.2987 13.7138 8.08436
319 1 14.1877 13.3228 8.91684
320 2 14.6664 13.8153 9.64373
321 2 13.7051 12.5388 9.30729
413 2 14.3171 18.0087 11.7597
520 1 17.393 13.4158 11.8445
521 2 18.3731 13.555 11.986
522 2 16.8957 14.2362 12.1269
595 1 12.3663 16.2066 7.49046
596 2 12.3514 17.0473 6.94924
597 2 12.3819 15.4162 6.87807
881 2 12.5517 13.4395 11.0798
892 1 14.4409 15.806 11.8417
893 2 14.9812 15.8212 11.0003
894 2 13.5213 15.4682 11.6413
1026 2 17.4033 18.1574 9.46908
82 1 22.7599 12.9522 10.5856
83 2 22.8094 12.8453 9.59261
84 2 23.2533 13.7786 10.857
850 1 20.6621 15.5637 9.86779
851 2 20.9136 15.3488 8.92408
852 2 20.1916 14.7803 10.2739
13 1 5.95246 22.2164 10.8244
15 2 5.78402 22.7454 11.6561
118 1 4.93516 18.4887 6.89772
120 2 5.80014 18.9634 7.06025
246 2 2.40934 18.6958 6.64745
362 2 5.84951 22.9405 8.36233
385 1 3.73518 20.6692 7.55234
386 2 4.15657 21.2318 8.26361
387 2 3.85925 21.1086 6.66266
835 1 2.57918 18.8313 11.9864
836 2 3.3506 18.9632 11.3639
837 2 1.76561 19.272 11.607
856 1 5.02708 19.7317 10.0712
857 2 5.7747 20.1944 9.59482
858 2 4.38293 19.3625 9.40137
976 1 3.36661 23.5874 8.81601
977 2 3.08428 23.2358 7.92343
978 2 2.56585 23.9285 9.30837
991 1 1.63712 21.3627 9.77281
992 2 1.00073 21.6688 9.06479
993 2 2.31735 20.7516 9.36798
14 2 6.7496 22.5881 10.3486
175 1 9.47038 21.5537 9.29174
176 2 9.26249 21.2621 8.35809
177 2 8.88007 21.0638 9.93324
349 1 7.76032 19.5729 7.85039
350 2 8.13065 19.2737 8.72978
351 2 8.31949 19.2011 7.10938
361 1 6.60757 22.3223 8.15465
363 2 6.27107 21.5529 7.61166
394 1 6.69993 18.4359 11.256
484 1 9.32338 23.835 10.548
485 2 10.1131 23.5279 10.0169
486 2 9.63489 24.3993 11.3125
498 2 9.14285 24.0078 6.26358
510 2 8.84276 18.4653 10.7193
883 1 11.3741 20.2189 8.22117
884 2 11.4648 21.2062 8.09027
885 2 11.1062 20.0312 9.16617
927 2 10.0196 20.4485 11.7252
139 1 17.227 19.1894 6.65882
141 2 18.1186 18.8576 6.35086
142 1 13.5624 20.1757 8.12508
143 2 13.5468 19.3579 8.70041
144 2 13.5819 20.9905 8.70444
151 1 17.2723 24.3561 7.19045
152 2 16.4631 23.8944 7.55396
153 2 17.4675 24.0125 6.27184
166 1 13.7275 24.3901 11.0371
167 2 12.734 24.3627 11.1473
168 2 13.9545 24.4072 10.0633
190 1 14.2846 23.0981 8.36336
191 2 15.107 22.5543 8.53048
192 2 14.3117 23.4665 7.4341
406 1 16.542 23.1 11.7425
407 2 17.1068 22.9085 10.9398
408 2 15.6217 23.3582 11.4486
412 1 14.3502 18.9483 11.419
414 2 13.6067 19.4775 11.8279
598 1 18.0367 21.4407 7.60932
599 2 18.1933 22.4236 7.70605
600 2 18.1294 21.1815 6.64797
757 1 16.6251 20.1806 10.4283
758 2 16.0231 20.7884 10.9462
759 2 16.247 20.037 9.51369
781 1 12.7381 22.0921 10.5304
782 2 13.72 22.2721 10.4715
783 2 12.2559 22.6502 9.85506
1024 1 17.8786 18.6492 8.73955
79 1 21.9138 21.4882 9.75779
80 2 21.2455 21.3707 9.02321
81 2 22.6751 20.8545 9.62026
182 2 21.8237 19.2022 11.7645
463 1 23.3024 23.8891 7.92553
464 2 23.2134 23.0691 8.49095
465 2 22.4429 24.4 7.94156
716 2 20.6095 23.4234 6.57595
717 2 20.288 21.8293 6.72521
859 1 23.9876 21.575 11.8514
860 2 23.1837 22.1238 12.0806
861 2 23.6971 20.6635 11.5602
1025 2 18.8014 18.8861 9.04355
1007 2 6.06408 4.19286 14.4366
18 2 11.0677 2.31344 17.9343
43 1 8.75932 5.56938 15.4996
44 2 8.31071 5.03552 16.2163
46 1 9.82066 2.29994 15.1135
47 2 10.6412 2.53306 15.6354
48 2 9.06259 2.12924 15.743
355 1 9.64566 5.37357 13.4641
356 2 10.1462 4.61543 13.8821
379 1 8.73539 2.9055 18.2621
380 2 8.91045 1.95507 18.0052
381 2 8.11808 3.32281 17.5952
432 2 12.041 5.63958 14.2757
604 1 6.81372 2.22952 12.7669
974 2 7.15078 5.58901 12.8627
998 2 10.2825 5.4202 17.8565
1003 1 10.2836 2.86817 12.5962
1004 2 9.96927 1.96187 12.8787
1006 1 6.72693 3.82858 15.0908
1008 2 7.47885 3.39305 14.5959
1 1 13.8354 1.01225 17.5501
2 2 14.39 1.21773 18.3564
3 2 12.866 1.0755 17.7874
202 1 15.2483 1.70131 16.0138
203 2 16.043 1.16262 16.2936
204 2 15.4748 2.22885 15.195
566 2 15.9572 5.46936 12.8826
622 1 17.5246 1.96237 13.0956
623 2 18.3456 2.15604 13.6327
624 2 16.9042 1.38856 13.6302
712 1 13.5948 4.23459 14.9385
713 2 14.4162 4.37973 14.3868
714 2 13.1112 3.42364 14.6092
823 1 13.7273 5.18512 18.1505
824 2 14.5143 4.94429 17.5825
825 2 13.0318 5.62905 17.5855
994 1 16.7881 4.58651 17.317
995 2 17.3101 5.41441 17.1119
996 2 17.2433 3.79557 16.9081
217 1 21.4553 1.46578 12.4457
301 1 19.8169 3.22792 15.1114
302 2 18.8727 3.43038 15.3711
303 2 20.4034 3.99903 15.3592
403 1 21.0861 1.43196 15.0793
404 2 22.0405 1.42591 14.7808
405 2 20.5155 1.00056 14.3804
586 1 19.835 4.64203 18.1914
587 2 19.3925 4.64838 17.2947
49 1 1.75204 8.10115 16.2403
50 2 1.41194 7.20962 16.5395
51 2 1.10305 8.50654 15.5965
55 1 5.16411 8.89005 13.9733
56 2 5.51885 7.95913 13.8865
57 2 5.44255 9.42838 13.1779
211 1 4.99217 10.0157 16.0455
212 2 5.88099 9.55987 15.9984
213 2 4.30961 9.37902 16.4042
311 2 1.14015 12.0828 17.0717
312 2 2.41895 11.8609 18.0627
457 1 3.97377 11.52 13.6938
458 2 4.87479 11.3941 14.1089
459 2 3.27065 11.1629 14.3087
689 2 6.10324 11.5308 12.2595
45 2 9.36252 6.24847 15.9179
136 1 8.60224 9.08469 15.2902
137 2 8.01744 8.27752 15.3708
138 2 8.89593 9.19004 14.3401
145 1 11.4395 11.6531 17.8562
146 2 10.5639 12.0461 17.5752
147 2 12.0543 11.6117 17.0687
266 2 9.76409 11.5515 13.2276
342 2 7.27357 6.55973 18.2918
357 2 9.99652 6.24029 13.8187
630 2 6.72079 12.1881 16.8474
746 2 11.9011 7.52486 16.9404
751 1 10.5208 10.9831 15.6733
752 2 10.5923 9.99942 15.508
753 2 11.0422 11.4768 14.9772
928 1 9.02273 8.58674 18.3595
930 2 8.75035 8.07019 17.5477
973 1 7.35508 6.5587 12.7287
975 2 7.49374 6.99599 13.6172
988 1 7.94747 11.2411 15.2711
989 2 7.87919 11.2621 14.2737
990 2 8.51498 12.0033 15.5825
116 2 14.8115 10.7802 12.5141
284 2 13.5629 12.0943 14.5619
343 1 14.3119 12.0234 16.8052
345 2 14.5624 11.1986 17.3121
370 1 15.0205 8.04711 14.168
371 2 14.7743 7.1059 13.9366
372 2 14.9697 8.6163 13.3473
400 1 18.1417 9.72195 16.5088
401 2 17.9265 10.458 15.8671
402 2 17.3627 9.0984 16.5743
430 1 12.6724 6.3165 14.654
431 2 12.2607 7.22593 14.5948
649 1 16.0175 10.0039 14.7336
650 2 16.472 10.7252 14.2109
651 2 15.473 10.4149 15.4648
664 1 17.7076 7.28977 14.3003
665 2 17.3549 8.02621 13.723
666 2 18.2591 6.66659 13.7457
745 1 12.746 7.97757 17.2256
747 2 13.2791 8.22804 16.4174
849 2 17.9622 11.5196 17.8033
979 1 12.5438 10.5243 13.4232
980 2 12.9191 9.68627 13.0271
981 2 12.3302 11.172 12.6919
91 1 22.6877 12.181 13.9038
93 2 23.186 11.3301 14.07
121 1 21.6618 10.89 15.9752
122 2 21.9815 11.2109 16.8667
123 2 21.059 10.1021 16.1011
331 1 20.6756 7.2259 17.5816
332 2 20.9139 6.58894 18.3147
333 2 19.838 6.91704 17.1309
334 1 21.824 7.50161 15.5581
335 2 21.0688 7.03306 15.0997
336 2 22.0092 8.36807 15.0944
421 1 22.695 8.89262 12.9821
422 2 23.5143 8.68811 13.5177
423 2 22.8552 9.7083 12.4262
847 1 18.92 11.8047 17.769
848 2 19.1352 12.1403 16.8518
907 1 20.4755 10.7678 13.8498
908 2 20.515 11.767 13.8378
909 2 20.6485 10.4164 12.9297
94 1 3.2721 18.0133 14.941
96 2 2.71741 17.9735 14.1099
286 1 2.9675 13.9962 14.3854
287 2 3.73756 13.7136 13.8134
288 2 3.30232 14.2532 15.2919
310 1 1.92271 12.5279 17.507
359 2 4.42108 17.5019 12.5666
415 1 5.5901 14.3996 17.9821
562 1 1.21471 13.6738 15.5983
563 2 1.19508 12.8478 15.0349
564 2 0.900373 14.4538 15.0573
661 1 1.29981 16.612 15.1957
662 2 2.19109 16.1607 15.2404
663 2 1.18958 17.2113 15.9886
763 1 5.56659 13.717 14.956
765 2 5.31089 13.6065 15.9164
955 1 4.9595 16.5774 14.9588
956 2 4.24268 16.0962 14.4543
957 2 5.63813 16.933 14.3162
163 1 11.7396 15.6329 17.8803
231 2 9.7219 16.6729 17.8881
262 1 9.86396 14.7684 15.5199
263 2 10.6099 14.5603 16.1525
264 2 9.55333 13.9248 15.0818
265 1 9.78782 12.5183 12.973
267 2 10.5671 12.9608 13.4168
436 1 7.63181 16.1349 16.179
437 2 7.69345 15.1407 16.2665
438 2 6.9256 16.4808 16.7967
580 1 8.21572 16.0214 13.6861
581 2 9.06001 16.3623 14.0996
582 2 7.69635 16.7881 13.3086
628 1 6.93944 12.7039 17.6758
629 2 7.76946 13.2408 17.5247
668 2 9.82956 17.9161 12.6297
669 2 11.4007 18.2229 12.9521
688 1 6.77226 12.27 12.337
764 2 6.52883 13.9825 14.8957
769 1 11.4063 17.0431 15.6543
770 2 10.4859 17.3681 15.8714
771 2 11.4708 16.855 14.6742
164 2 12.2513 14.7814 17.7656
165 2 12.371 16.4078 17.8496
283 1 13.5946 12.6985 13.7657
285 2 13.4249 13.6405 14.0552
344 2 14.0106 12.7296 17.4459
544 1 18.0833 15.5325 15.6213
545 2 18.2687 15.0209 14.7822
546 2 17.3593 16.2009 15.451
553 1 17.1375 13.6836 17.5634
554 2 17.479 14.3351 18.2409
555 2 16.4229 13.1182 17.9753
592 1 15.449 15.0103 14.2813
593 2 14.5871 15.5026 14.4031
594 2 16.0886 15.5805 13.7658
772 1 15.2745 15.4213 16.5777
773 2 14.4536 15.2221 17.1128
774 2 16.0328 15.6293 17.1956
794 2 16.1103 17.8813 16.5069
877 1 17.679 12.5324 13.8691
879 2 17.0286 13.1909 14.2479
982 1 13.9878 17.9695 15.9347
984 2 13.6034 17.0495 16.0114
92 2 23.3379 12.9342 13.8048
313 1 20.6771 13.9486 15.6336
314 2 20.318 14.6347 16.2662
315 2 21.2417 13.2943 16.1368
364 1 20.2944 18.1125 15.7262
366 2 20.218 17.2966 16.2993
367 1 23.1839 15.6245 13.0878
368 2 23.7857 14.8693 12.8278
369 2 23.2545 16.3557 12.4092
501 2 21.0477 14.1669 18.3703
556 1 20.7263 15.1495 13.2007
557 2 20.2494 16.021 13.315
558 2 20.1283 14.4019 13.4896
727 1 23.0178 16.3846 16.0554
728 2 22.6537 15.9533 15.2299
729 2 22.4073 16.199 16.8254
878 2 18.3845 12.332 14.5488
937 1 23.1803 13.7316 18.0273
938 2 23.5065 14.2326 17.2257
939 2 23.7558 12.9272 18.1745
35 2 5.68173 20.3693 18.1826
95 2 4.05237 18.6208 14.7923
277 1 1.22393 22.3058 15.462
278 2 1.01041 21.6093 16.1471
279 2 0.998117 23.2101 15.8244
295 1 4.63339 22.6556 13.9027
296 2 4.37554 23.5922 14.1404
297 2 4.41989 22.047 14.667
307 1 3.13871 23.7813 17.4748
308 2 3.79714 23.3006 18.0539
309 2 2.53843 24.3409 18.0462
698 2 1.77443 22.2182 18.1125
791 2 5.28191 23.6341 16.1658
805 1 3.83433 20.6717 16.3782
806 2 4.04579 21.3489 17.083
807 2 3.82614 19.7584 16.7853
872 2 5.97988 18.7642 16.4747
901 1 1.94565 20.3691 14.5777
902 2 1.6297 19.9587 13.7222
903 2 1.88722 19.6938 15.3129
37 1 8.33066 19.2404 14.3828
38 2 7.4119 18.8465 14.3562
39 2 8.99691 18.5196 14.5741
178 1 8.88064 22.3603 13.314
179 2 9.43001 22.6867 14.0832
180 2 9.41342 22.4299 12.4706
250 1 7.28973 21.4316 14.7366
251 2 6.39104 21.1643 15.0844
252 2 7.92447 21.5398 15.5017
419 2 8.74105 20.679 18.2883
490 1 9.87022 22.2533 16.3364
491 2 10.4118 21.5772 16.8361
492 2 10.1035 23.1709 16.6581
526 1 11.1976 20.3824 14.9075
527 2 11.1951 20.5016 13.9146
528 2 11.1374 19.4086 15.1264
790 1 6.2327 23.7952 16.4305
792 2 6.66794 24.3963 15.7602
871 1 6.81912 19.3026 16.551
873 2 7.51301 18.7712 17.037
874 1 7.77949 22.6157 17.4581
875 2 6.96845 22.0335 17.5153
876 2 7.94671 23.0426 18.3468
925 1 9.4852 20.0841 12.4878
926 2 8.51299 20.2504 12.3231
1000 1 10.3195 19.0901 17.6295
1001 2 11.2491 18.9864 17.2756
1002 2 9.67797 19.1603 16.8656
322 1 17.5637 23.9064 13.968
323 2 16.7953 24.3988 13.5594
324 2 17.8835 24.3996 14.7769
658 1 17.3109 18.9183 13.6307
659 2 17.9893 19.3645 13.047
660 2 16.6138 18.4844 13.06
793 1 16.407 18.7372 16.9304
795 2 16.4503 19.4553 16.2359
952 1 12.7149 21.0353 16.81
953 2 12.5664 21.8224 16.2113
954 2 12.9991 20.2486 16.2619
983 2 13.6118 18.4214 15.1257
103 1 20.0414 23.1576 16.5512
104 2 19.8132 22.186 16.4884
105 2 20.3261 23.3735 17.4851
181 1 21.7309 19.6104 12.6726
183 2 21.6184 20.6001 12.5832
365 2 19.7343 18.8452 16.1129
409 1 23.7717 19.7758 16.9794
410 2 23.2312 20.3208 16.3384
411 2 23.9052 20.2917 17.8255
583 1 19.6111 22.211 14.223
584 2 19.3215 22.7126 13.4078
585 2 18.877 21.5981 14.5155
685 1 21.702 18.9408 17.2009
686 2 21.3306 19.857 17.3515
687 2 21.6181 18.4049 18.041
904 1 24.0287 19.2338 13.7082
905 2 23.9861 18.5655 12.9655
906 2 23.3163 19.0312 14.3801
85 1 5.55479 4.15324 24.3691
86 2 5.39356 5.05334 23.9644
87 2 4.69628 3.64113 24.3958
536 2 6.09057 3.34688 22.1627
16 1 11.5532 2.63741 18.7463
17 2 12.1179 3.42645 18.5044
276 2 9.95413 5.68622 22.7572
340 1 6.66962 5.85351 18.6612
341 2 6.76287 5.8224 19.6564
535 1 6.16532 4.33556 22.0326
537 2 7.07818 4.63953 22.3052
801 2 11.7409 3.0579 22.328
997 1 10.5146 5.65237 18.8011
999 2 10.5672 4.81593 19.3466
1013 2 8.67172 5.63485 20.8117
1015 1 10.0384 3.33109 24.0567
1016 2 9.72544 4.22452 24.3789
1017 2 9.3503 2.93651 23.4478
31 1 13.8541 4.76547 20.5304
32 2 13.0613 4.18771 20.3367
33 2 14.4143 4.3361 21.2388
259 1 15.8464 2.40936 22.6521
260 2 14.8691 2.61388 22.5966
261 2 16.0137 1.78648 23.4163
532 1 16.1865 4.3416 23.6287
533 2 16.5729 3.83394 24.3988
534 2 15.8505 5.22749 23.9485
607 1 17.6565 4.63335 21.6519
608 2 17.6288 5.37345 22.3238
609 2 17.6798 3.75328 22.1261
721 1 13.9625 1.16313 20.7818
722 2 13.7944 2.14729 20.7255
723 2 14.9241 1.0014 21.0037
734 2 13.7942 5.67622 22.9119
799 1 12.5153 3.62839 22.6015
800 2 12.7959 3.38642 23.5303
40 1 20.0272 3.19034 21.5728
41 2 20.4842 2.36082 21.2518
42 2 19.8905 3.81449 20.8036
226 1 21.7017 4.36358 22.7056
227 2 21.3316 3.78157 23.4297
228 2 21.0029 5.01629 22.4128
289 1 24.0199 4.76931 21.7481
290 2 23.7711 3.88536 22.144
291 2 24.3995 5.35889 22.4611
588 2 19.7718 3.72614 18.5878
640 1 19.5734 5.91414 23.8153
642 2 18.868 5.4978 24.3889
750 2 23.3998 6.07743 24.3996
64 1 5.82517 7.98075 22.9946
66 2 5.9409 6.99253 23.0947
102 2 5.88993 11.4114 19.0886
130 1 4.50157 7.16866 19.8252
131 2 4.59809 6.22738 19.5016
132 2 3.77594 7.62528 19.3104
441 2 4.91674 11.8004 21.025
934 1 3.99879 10.3939 19.2683
935 2 3.5952 10.002 18.4416
936 2 4.5327 9.69398 19.7427
65 2 6.20605 8.44373 23.7949
100 1 6.43509 10.8874 19.7431
101 2 7.15702 10.3951 19.2568
172 1 7.64303 8.43579 21.2689
173 2 6.92992 9.11703 21.1034
174 2 7.26294 7.51895 21.1467
274 1 10.361 6.15414 23.5418
275 2 11.3198 6.36047 23.3463
384 2 12.1228 11.6931 20.5075
442 1 11.9198 8.44928 23.0926
444 2 11.2009 8.70208 23.7402
505 1 9.1775 11.4802 20.0718
506 2 9.83693 12.2226 20.19
507 2 9.4303 10.9338 19.2733
550 1 9.08712 7.88687 23.9407
551 2 8.20774 7.78066 24.4048
552 2 8.94438 7.88191 22.9509
760 1 8.66003 10.0627 22.701
761 2 7.73758 10.1803 23.0687
762 2 9.32676 10.1399 23.4422
826 1 11.4143 11.7435 24.3969
827 2 11.7963 10.8963 24.0277
828 2 10.5134 11.9061 23.9944
923 2 12.1994 6.13922 21.3541
929 2 8.35526 8.43748 19.089
964 1 10.703 8.69691 21.0514
965 2 10.1194 9.50365 21.1442
966 2 11.646 8.98505 20.8847
1012 1 8.84095 6.33749 20.1206
1014 2 9.62123 6.89762 20.3988
112 1 14.7419 10.2404 23.3438
113 2 13.9494 10.7983 23.5901
114 2 15.1647 9.87699 24.1739
205 1 15.4565 7.30457 22.531
206 2 15.3428 8.29672 22.479
207 2 15.7061 6.94997 21.6299
216 2 16.6196 11.8043 20.5436
382 1 12.4292 12.1961 19.6994
443 2 12.8128 8.54203 23.5329
568 1 17.3842 6.77495 18.8495
569 2 16.7246 7.4103 19.251
570 2 18.2854 7.20714 18.816
733 1 13.5213 6.45924 23.4709
735 2 13.3129 6.14994 24.3987
766 1 14.5513 10.4893 20.644
767 2 14.5516 9.50054 20.7935
768 2 14.0007 10.9331 21.351
775 1 17.6093 7.88945 22.2177
776 2 18.2162 7.86805 23.0122
777 2 18.0128 7.3544 21.4755
838 1 17.9228 11.5396 22.2976
839 2 18.1543 10.5668 22.303
922 1 12.689 6.61629 20.6242
924 2 13.5894 6.89805 20.9557
7 1 20.8274 6.5916 20.8863
8 2 20.0538 6.12595 20.4566
9 2 20.5293 7.47956 21.2365
22 1 20.7915 9.95069 23.0053
23 2 20.1355 10.1578 23.7312
24 2 20.3384 9.42212 22.2875
208 1 23.7204 8.76709 23.5167
209 2 23.2644 8.80942 22.6278
210 2 24.2648 7.93015 23.5725
232 1 22.9447 11.1272 20.5046
233 2 23.603 10.7439 19.8567
234 2 22.8856 12.1168 20.3735
427 1 21.915 8.35322 19.7691
428 2 22.2205 9.04807 20.4202
429 2 21.0192 8.6083 19.4052
610 1 18.7008 11.0316 19.8173
611 2 19.5406 11.0558 20.3598
612 2 18.5795 10.117 19.4315
641 2 20.2749 6.32678 24.3963
748 1 22.4862 6.42373 24.1865
749 2 22.429 6.63477 23.2107
840 2 18.6094 12.0484 22.8171
127 1 3.38274 12.8496 22.6634
128 2 2.64591 12.5028 23.2438
129 2 4.25648 12.7516 23.1399
352 1 1.8742 12.825 19.9531
353 2 1.01856 12.416 19.6359
354 2 1.92982 12.7514 20.9488
416 2 5.31709 13.7499 18.6916
417 2 5.96685 15.2213 18.4099
439 1 4.95193 12.703 20.596
440 2 4.02854 12.9839 20.3344
454 1 1.34344 15.3393 19.2232
455 2 1.84676 16.0275 18.7007
456 2 1.01948 14.6228 18.6054
472 1 3.05956 16.9854 21.3961
473 2 3.79096 17.5296 21.8071
474 2 3.33057 16.7037 20.4757
513 2 6.05608 17.5705 23.0736
601 1 5.27703 14.88 22.9391
602 2 5.72899 14.2166 22.3427
603 2 4.77182 15.5391 22.382
10 1 10.7118 17.5285 20.1065
11 2 11.1804 17.6386 19.23
12 2 11.2315 16.9005 20.6857
76 1 7.73481 13.9923 20.796
77 2 7.06057 13.3991 20.3562
78 2 8.34141 14.3795 20.1017
169 1 8.3885 16.0623 23.5236
170 2 7.45996 15.7474 23.327
171 2 8.39555 16.5576 24.3923
229 1 9.15619 16.0959 18.4772
230 2 8.88911 16.6112 19.2915
376 1 11.1655 17.3893 24.3985
377 2 11.7382 16.7226 23.9213
378 2 10.5937 17.8726 23.7355
475 1 10.1367 14.3266 24.3664
476 2 9.17747 14.1244 24.1691
477 2 10.5973 14.6109 23.5255
511 1 6.40634 17.721 23.9981
574 1 7.12837 17.0215 20.6269
575 2 6.51643 17.0689 19.8375
576 2 6.94935 16.1804 21.1374
684 2 12.0339 14.6153 21.4786
785 2 8.92517 17.685 21.9619
1027 1 7.98264 12.2838 22.3095
1028 2 8.84692 12.7248 22.5514
1029 2 7.24538 12.668 22.8652
28 1 15.965 17.0232 19.0249
29 2 15.5952 17.8206 19.5018
30 2 16.661 16.5869 19.5951
61 1 13.3453 16.5946 20.0949
62 2 13.8468 16.034 19.4359
63 2 13.4077 17.5567 19.8297
214 1 16.9624 12.6051 20.0525
215 2 16.9 13.41 20.6427
383 2 12.5996 13.1503 19.9455
493 1 14.7911 12.9242 19.903
494 2 14.73 13.8362 19.4973
495 2 14.6617 12.9902 20.8924
538 1 16.3065 16.878 22.6421
539 2 17.2636 16.919 22.929
540 2 15.7396 17.3726 23.3008
682 1 12.5405 14.9715 22.2637
683 2 13.4755 15.1911 21.9854
961 1 15.4428 12.5651 23.2633
962 2 16.1038 13.0089 22.6582
963 2 15.8863 12.3341 24.1292
339 2 24.1052 18.2355 20.4507
499 1 20.5511 13.929 19.205
500 2 19.6789 13.5032 18.964
694 1 20.359 17.1621 19.3505
695 2 19.8195 17.9032 19.7504
696 2 21.0224 16.8327 20.0224
895 1 22.4242 13.3307 24.2196
896 2 22.6502 14.3037 24.1734
897 2 22.6736 12.8894 23.3575
34 1 5.76349 20.0143 19.1139
36 2 5.85536 19.019 19.0843
67 1 3.39383 20.6374 21.0965
68 2 3.53099 19.8743 20.465
69 2 3.30826 21.4881 20.5778
242 2 5.51311 19.2766 21.244
512 2 6.06048 18.5916 24.348
697 1 1.93235 21.6162 18.8952
699 2 1.57686 20.7041 18.6911
967 1 5.27284 22.9945 19.6452
968 2 5.03094 22.0634 19.3721
241 1 6.12884 19.6316 21.9475
243 2 6.98319 19.9307 21.5225
346 1 10.3267 22.5465 20.4464
347 2 9.52725 22.7152 19.8698
348 2 11.125 22.3777 19.8683
418 1 8.19945 20.4972 19.1091
420 2 8.08126 19.5103 19.2186
503 2 12.0742 23.8687 21.6099
504 2 11.7339 22.5802 22.5536
589 1 10.331 20.2298 20.7289
590 2 10.8631 20.6682 21.4532
591 2 10.8865 20.165 19.8999
620 2 12.1012 19.3356 23.0942
784 1 8.72887 18.664 22.0177
786 2 8.45999 18.8973 22.9522
913 1 8.1636 23.4014 23.2648
914 2 7.57508 23.8495 23.9377
915 2 8.89275 22.906 23.737
969 2 6.26086 23.054 19.7876
5 2 18.0816 23.5555 19.5046
502 1 12.44 23.0249 22.0026
517 1 17.4626 20.5913 22.1208
518 2 18.0229 20.1973 21.3923
519 2 18.0347 21.1629 22.7091
577 1 14.0603 23.2685 19.8457
578 2 13.6142 24.1527 19.9841
579 2 14.2919 22.8695 20.7329
619 1 12.5257 18.5008 22.7434
621 2 12.4227 18.4669 21.7493
754 1 14.0986 23.0429 24.2397
755 2 13.4237 22.3051 24.2582
756 2 13.8281 23.725 23.5603
886 1 14.214 19.9095 22.6798
887 2 14.7259 19.1372 22.3035
888 2 14.7991 20.4232 23.3073
919 1 13.7859 19.7558 19.492
920 2 12.8797 19.5678 19.1132
921 2 13.8255 20.7044 19.8062
1018 1 16.0865 20.5378 20.4054