
     Program PWSCF v.6.7MaX starts on 12Jun2023 at 18:24:58 

     This program is part of the open-source Quantum ESPRESSO suite
     for quantum simulation of materials; please cite
         "P. Giannozzi et al., J. Phys.:Condens. Matter 21 395502 (2009);
         "P. Giannozzi et al., J. Phys.:Condens. Matter 29 465901 (2017);
          URL http://www.quantum-espresso.org", 
     in publications or presentations arising from this work. More details at
     http://www.quantum-espresso.org/quote

     Parallel version (MPI), running on     6 processors

     MPI processes distributed on     1 nodes
     R & G space division:  proc/nbgrp/npool/nimage =       6
     Waiting for input...
     Reading input from standard input

     Current dimensions of program PWSCF are:
     Max number of different atomic species (ntypx) = 10
     Max number of k-points (npk) =  40000
     Max angular momentum in pseudopotentials (lmaxx) =  3
     file Al.pbe-n-kjpaw_psl.1.0.0.UPF: wavefunction(s)  3S 3P renormalized

     Subspace diagonalization in iterative solution of the eigenvalue problem:
     one sub-group per band group will be used
     scalapack distributed-memory algorithm (size of sub-group:  2*  2 procs)

     Found symmetry operation: I + ( -0.5000  0.0000  0.0000)
     This is a supercell, fractional translations are disabled
     Message from routine setup:
     using ibrav=0 with symmetry is DISCOURAGED, use correct ibrav instead

     Parallelization info
     --------------------
     sticks:   dense  smooth     PW     G-vecs:    dense   smooth      PW
     Min         324     159     46                41500    14641    2250
     Max         325     160     48                41513    14662    2256
     Sum        1945     955    283               249025    87875   13519



     bravais-lattice index     =            0
     lattice parameter (alat)  =      10.8235  a.u.
     unit-cell volume          =    3964.1044 (a.u.)^3
     number of atoms/cell      =           12
     number of atomic types    =            1
     number of electrons       =        36.00
     number of Kohn-Sham states=           22
     kinetic-energy cutoff     =      30.0000  Ry
     charge density cutoff     =     240.0000  Ry
     scf convergence threshold =      1.0E-04
     mixing beta               =       0.7000
     number of iterations used =            8  plain     mixing
     energy convergence thresh.=      1.0E-04
     force convergence thresh. =      1.0E-01
     Exchange-correlation= SLA  PW   PBX  PBC
                           (   1   4   3   4   0   0   0)
     nstep                     =           50


     celldm(1)=  10.823529  celldm(2)=   0.000000  celldm(3)=   0.000000
     celldm(4)=   0.000000  celldm(5)=   0.000000  celldm(6)=   0.000000

     crystal axes: (cart. coord. in units of alat)
               a(1) = (   1.000000   0.000000   0.000000 )  
               a(2) = (   0.500000   0.866025   0.000000 )  
               a(3) = (   0.000000   0.000000   3.610005 )  

     reciprocal axes: (cart. coord. in units 2 pi/alat)
               b(1) = (  1.000000 -0.577350  0.000000 )  
               b(2) = (  0.000000  1.154701  0.000000 )  
               b(3) = (  0.000000  0.000000  0.277008 )  


     PseudoPot. # 1 for Al read from file:
     /home/mini21k/QE/Potential/Al.pbe-n-kjpaw_psl.1.0.0.UPF
     MD5 check sum: cfc449ca30b5f3223ec38ddd88ac046d
     Pseudo is Projector augmented-wave + core cor, Zval =  3.0
     Generated using "atomic" code by A. Dal Corso  v.5.1
     Shape of augmentation charge: PSQ
     Using radial grid of 1135 points,  6 beta functions with: 
                l(1) =   0
                l(2) =   0
                l(3) =   1
                l(4) =   1
                l(5) =   2
                l(6) =   2
     Q(r) pseudized with 0 coefficients 


     atomic species   valence    mass     pseudopotential
        Al             3.00    26.98154     Al( 1.00)

      6 Sym. Ops. (no inversion) found



   Cartesian axes

     site n.     atom                  positions (alat units)
         1           Al  tau(   1) = (   0.2500000   0.1443376   0.0000000  )
         2           Al  tau(   2) = (   0.7500001   0.1443376   0.0000000  )
         3           Al  tau(   3) = (   0.4999999   0.5773502   0.0000000  )
         4           Al  tau(   4) = (   1.0000000   0.5773502   0.0000000  )
         5           Al  tau(   5) = (   0.0000000   0.2886752   0.4082484  )
         6           Al  tau(   6) = (   0.4999999   0.2886752   0.4082484  )
         7           Al  tau(   7) = (   0.2500000   0.7216878   0.4082484  )
         8           Al  tau(   8) = (   0.7500001   0.7216878   0.4082484  )
         9           Al  tau(   9) = (   0.0000000   0.0000000   0.8164965  )
        10           Al  tau(  10) = (   0.4999999   0.0000000   0.8164965  )
        11           Al  tau(  11) = (   0.2500000   0.4330126   0.8164965  )
        12           Al  tau(  12) = (   0.7500001   0.4330126   0.8164965  )

     number of k points=     3  Gaussian smearing, width (Ry)=  0.0030
                       cart. coord. in units 2pi/alat
        k(    1) = (   0.0000000   0.0000000   0.0000000), wk =   0.2222222
        k(    2) = (   0.0000000   0.3849002   0.0000000), wk =   1.3333333
        k(    3) = (   0.3333333  -0.5773503   0.0000000), wk =   0.4444444

     Dense  grid:   249025 G-vectors     FFT dimensions: (  54,  54, 200)

     Smooth grid:    87875 G-vectors     FFT dimensions: (  40,  40, 144)

     Estimated max dynamical RAM per process >     173.33 MB

     Estimated total dynamical RAM >       1.02 GB

     Initial potential from superposition of free atoms

     starting charge   35.97252, renormalised to   36.00000

     negative rho (up, down):  8.901E-05 0.000E+00
     Starting wfcs are   48 randomized atomic wfcs
     Checking if some PAW data can be deallocated... 

     total cpu time spent up to now is        1.8 secs

     Self-consistent Calculation

     iteration #  1     ecut=    30.00 Ry     beta= 0.70
     Davidson diagonalization with overlap
     ethr =  1.00E-02,  avg # of iterations =  4.0

     negative rho (up, down):  1.990E-06 0.000E+00

     total cpu time spent up to now is        3.8 secs

     total energy              =    -473.50863118 Ry
     estimated scf accuracy    <       0.54725710 Ry

     iteration #  2     ecut=    30.00 Ry     beta= 0.70
     Davidson diagonalization with overlap
     ethr =  1.52E-03,  avg # of iterations =  5.0

     negative rho (up, down):  3.214E-06 0.000E+00

     total cpu time spent up to now is        6.1 secs

     total energy              =    -473.06685132 Ry
     estimated scf accuracy    <       5.62895243 Ry

     iteration #  3     ecut=    30.00 Ry     beta= 0.70
     Davidson diagonalization with overlap
     ethr =  1.52E-03,  avg # of iterations =  5.0

     negative rho (up, down):  1.359E-05 0.000E+00

     total cpu time spent up to now is        8.4 secs

     total energy              =    -473.82394250 Ry
     estimated scf accuracy    <       0.02459101 Ry

     iteration #  4     ecut=    30.00 Ry     beta= 0.70
     Davidson diagonalization with overlap
     ethr =  6.83E-05,  avg # of iterations =  5.7

     negative rho (up, down):  3.185E-05 0.000E+00

     total cpu time spent up to now is       10.7 secs

     total energy              =    -473.83080707 Ry
     estimated scf accuracy    <       0.01524994 Ry

     iteration #  5     ecut=    30.00 Ry     beta= 0.70
     Davidson diagonalization with overlap
     ethr =  4.24E-05,  avg # of iterations =  3.0

     negative rho (up, down):  4.426E-05 0.000E+00

     total cpu time spent up to now is       12.7 secs

     total energy              =    -473.82868243 Ry
     estimated scf accuracy    <       0.10424831 Ry

     iteration #  6     ecut=    30.00 Ry     beta= 0.70
     Davidson diagonalization with overlap
     ethr =  4.24E-05,  avg # of iterations =  2.7

     negative rho (up, down):  4.453E-05 0.000E+00

     total cpu time spent up to now is       14.7 secs

     total energy              =    -473.83348371 Ry
     estimated scf accuracy    <       0.00427255 Ry

     iteration #  7     ecut=    30.00 Ry     beta= 0.70
     Davidson diagonalization with overlap
     ethr =  1.19E-05,  avg # of iterations =  3.7

     negative rho (up, down):  4.536E-05 0.000E+00

     total cpu time spent up to now is       16.7 secs

     total energy              =    -473.83366013 Ry
     estimated scf accuracy    <       0.00073199 Ry

     iteration #  8     ecut=    30.00 Ry     beta= 0.70
     Davidson diagonalization with overlap
     ethr =  2.03E-06,  avg # of iterations =  7.3

     negative rho (up, down):  4.602E-05 0.000E+00

     total cpu time spent up to now is       18.9 secs

     total energy              =    -473.83396736 Ry
     estimated scf accuracy    <       0.00032482 Ry

     iteration #  9     ecut=    30.00 Ry     beta= 0.70
     Davidson diagonalization with overlap
     ethr =  9.02E-07,  avg # of iterations =  1.7

     negative rho (up, down):  4.615E-05 0.000E+00

     total cpu time spent up to now is       20.8 secs

     total energy              =    -473.83394915 Ry
     estimated scf accuracy    <       0.00022036 Ry

     iteration # 10     ecut=    30.00 Ry     beta= 0.70
     Davidson diagonalization with overlap
     ethr =  6.12E-07,  avg # of iterations =  1.0

     negative rho (up, down):  4.629E-05 0.000E+00

     total cpu time spent up to now is       22.7 secs

     End of self-consistent calculation

          k = 0.0000 0.0000 0.0000 ( 11025 PWs)   bands (ev):

   -10.4341  -8.6475  -6.0845  -4.5988  -4.5988  -4.5982  -4.5307  -4.5301
    -4.5301  -3.0818  -3.0814  -3.0814  -2.9548  -2.5508  -2.5508  -2.5503
    -0.3146  -0.3146  -0.3142  -0.1122  -0.1119  -0.1119

          k = 0.0000 0.3849 0.0000 ( 11000 PWs)   bands (ev):

    -9.7688  -7.9874  -7.7919  -6.0274  -5.8436  -5.8436  -5.4264  -4.1042
    -4.1041  -3.4924  -2.3267  -2.1681  -2.1680  -1.4459  -1.4459  -0.5484
    -0.2052  -0.2052   0.0110   1.1557   1.2960   1.2962

          k = 0.3333-0.5774 0.0000 ( 10974 PWs)   bands (ev):

    -8.4481  -8.4476  -8.4473  -6.6774  -6.6771  -6.6768  -4.1273  -4.1271
    -4.1268  -2.7121  -2.7120  -2.5859  -1.4540  -1.0799  -1.0797  -1.0794
    -0.6859  -0.6837   1.6974   1.6998   2.0281   2.1587

     the Fermi energy is    -0.1666 ev

!    total energy              =    -473.83388936 Ry

     total all-electron energy =     -5827.547268 Ry
     estimated scf accuracy    <       0.00007075 Ry
     smearing contrib. (-TS)   =      -0.00101795 Ry
     internal energy E=F+TS    =    -473.83287141 Ry

     The total energy is F=E-TS. E is the sum of the following terms:
     one-electron contribution =    -425.36053949 Ry
     hartree contribution      =     221.47758359 Ry
     xc contribution           =     -30.42075771 Ry
     ewald contribution        =     176.61631478 Ry
     one-center paw contrib.   =    -416.14547260 Ry

     convergence has been achieved in  10 iterations

     negative rho (up, down):  4.629E-05 0.000E+00

     Forces acting on atoms (cartesian axes, Ry/au):

     atom    1 type  1   force =    -0.00000106   -0.00000061   -0.00088124
     atom    2 type  1   force =     0.00000106   -0.00000061   -0.00088124
     atom    3 type  1   force =     0.00000000    0.00000123   -0.00088124
     atom    4 type  1   force =    -0.00000000   -0.00000000   -0.00088738
     atom    5 type  1   force =     0.00000000    0.00001991   -0.00004592
     atom    6 type  1   force =     0.00000000    0.00000000   -0.00002567
     atom    7 type  1   force =    -0.00001724   -0.00000995   -0.00004592
     atom    8 type  1   force =     0.00001724   -0.00000995   -0.00004592
     atom    9 type  1   force =     0.00000000    0.00000000    0.00092405
     atom   10 type  1   force =     0.00000000    0.00004790    0.00092349
     atom   11 type  1   force =     0.00004148   -0.00002395    0.00092349
     atom   12 type  1   force =    -0.00004148   -0.00002395    0.00092349

     Total force =     0.001851     Total SCF correction =     0.007465
     SCF correction compared to forces is large: reduce conv_thr to get better values

     BFGS Geometry Optimization
     Energy error            =      0.0E+00
     Gradient error          =      9.2E-04

     bfgs converged in   1 scf cycles and   0 bfgs steps
     (criteria: energy <  1.0E-04 Ry, force <  1.0E-01 Ry/Bohr)

     End of BFGS Geometry Optimization

     Final energy   =    -473.8338893604 Ry
Begin final coordinates

ATOMIC_POSITIONS (angstrom)
Al            1.4318910000        0.8267030000        0.0000000000    0   0   0
Al            4.2956740000        0.8267030000        0.0000000000    0   0   0
Al            2.8637820000        3.3068110000        0.0000000000    0   0   0
Al            5.7275650000        3.3068110000        0.0000000000    0   0   0
Al            0.0000000000        1.6534060000        2.3382690000
Al            2.8637820000        1.6534060000        2.3382690000
Al            1.4318910000        4.1335140000        2.3382690000
Al            4.2956740000        4.1335140000        2.3382690000
Al            0.0000000000        0.0000000000        4.6765370000
Al            2.8637820000        0.0000000000        4.6765370000
Al            1.4318910000        2.4801080000        4.6765370000
Al            4.2956740000        2.4801080000        4.6765370000
End final coordinates



     Writing output data file ./output/pwscf.save/

     init_run     :      1.56s CPU      1.68s WALL (       1 calls)
     electrons    :     19.73s CPU     20.97s WALL (       1 calls)
     forces       :      1.39s CPU      1.47s WALL (       1 calls)

     Called by init_run:
     wfcinit      :      0.53s CPU      0.55s WALL (       1 calls)
     potinit      :      0.41s CPU      0.44s WALL (       1 calls)
     hinit0       :      0.28s CPU      0.28s WALL (       1 calls)

     Called by electrons:
     c_bands      :      8.22s CPU      8.28s WALL (      10 calls)
     sum_band     :      4.74s CPU      5.41s WALL (      10 calls)
     v_of_rho     :      0.77s CPU      0.82s WALL (      11 calls)
     newd         :      3.55s CPU      4.05s WALL (      11 calls)
     PAW_pot      :      2.78s CPU      2.81s WALL (      11 calls)
     mix_rho      :      0.14s CPU      0.15s WALL (      10 calls)

     Called by c_bands:
     init_us_2    :      0.19s CPU      0.20s WALL (      66 calls)
     cegterg      :      7.62s CPU      7.68s WALL (      30 calls)

     Called by *egterg:
     cdiaghg      :      0.12s CPU      0.12s WALL (     147 calls)
     h_psi        :      4.92s CPU      4.98s WALL (     150 calls)
     s_psi        :      1.41s CPU      1.41s WALL (     150 calls)
     g_psi        :      0.02s CPU      0.02s WALL (     117 calls)

     Called by h_psi:
     h_psi:calbec :      1.75s CPU      1.78s WALL (     150 calls)
     vloc_psi     :      1.65s CPU      1.68s WALL (     150 calls)
     add_vuspsi   :      1.50s CPU      1.51s WALL (     150 calls)

     General routines
     calbec       :      2.55s CPU      2.59s WALL (     192 calls)
     fft          :      0.54s CPU      0.57s WALL (     152 calls)
     ffts         :      0.02s CPU      0.03s WALL (      21 calls)
     fftw         :      1.69s CPU      1.72s WALL (    4678 calls)
     interpolate  :      0.06s CPU      0.06s WALL (      11 calls)

     Parallel routines
     fft_scatt_xy :      0.30s CPU      0.31s WALL (    4851 calls)
     fft_scatt_yz :      0.83s CPU      0.86s WALL (    4851 calls)

     PWSCF        :     22.79s CPU     24.23s WALL


   This run was terminated on:  18:25:23  12Jun2023            

=------------------------------------------------------------------------------=
   JOB DONE.
=------------------------------------------------------------------------------=
