
     Program PWSCF v.6.7MaX starts on 13Jun2023 at  9:16:41 

     This program is part of the open-source Quantum ESPRESSO suite
     for quantum simulation of materials; please cite
         "P. Giannozzi et al., J. Phys.:Condens. Matter 21 395502 (2009);
         "P. Giannozzi et al., J. Phys.:Condens. Matter 29 465901 (2017);
          URL http://www.quantum-espresso.org", 
     in publications or presentations arising from this work. More details at
     http://www.quantum-espresso.org/quote

     Parallel version (MPI), running on     6 processors

     MPI processes distributed on     1 nodes
     R & G space division:  proc/nbgrp/npool/nimage =       6
     Waiting for input...
     Reading input from standard input

     Current dimensions of program PWSCF are:
     Max number of different atomic species (ntypx) = 10
     Max number of k-points (npk) =  40000
     Max angular momentum in pseudopotentials (lmaxx) =  3
     file Al.pbe-n-kjpaw_psl.1.0.0.UPF: wavefunction(s)  3S 3P renormalized
     file O.pbe-n-kjpaw_psl.0.1.UPF: wavefunction(s)  2P renormalized
     file C.pbe-n-kjpaw_psl.1.0.0.UPF: wavefunction(s)  2S 2P renormalized

     Subspace diagonalization in iterative solution of the eigenvalue problem:
     one sub-group per band group will be used
     scalapack distributed-memory algorithm (size of sub-group:  2*  2 procs)

     Message from routine setup:
     using ibrav=0 with symmetry is DISCOURAGED, use correct ibrav instead

     Parallelization info
     --------------------
     sticks:   dense  smooth     PW     G-vecs:    dense   smooth      PW
     Min        1294     644    173               117762    41654    5787
     Max        1295     645    174               117767    41661    5790
     Sum        7765    3865   1039               706589   249937   34725



     bravais-lattice index     =            0
     lattice parameter (alat)  =      21.6471  a.u.
     unit-cell volume          =   11255.1391 (a.u.)^3
     number of atoms/cell      =           50
     number of atomic types    =            3
     number of electrons       =       154.00
     number of Kohn-Sham states=           92
     kinetic-energy cutoff     =      30.0000  Ry
     charge density cutoff     =     240.0000  Ry
     scf convergence threshold =      1.0E-04
     mixing beta               =       0.7000
     number of iterations used =            8  plain     mixing
     energy convergence thresh.=      1.0E-04
     force convergence thresh. =      1.0E-01
     Exchange-correlation= SLA  PW   PBX  PBC
                           (   1   4   3   4   0   0   0)
     nstep                     =           50


     celldm(1)=  21.647058  celldm(2)=   0.000000  celldm(3)=   0.000000
     celldm(4)=   0.000000  celldm(5)=   0.000000  celldm(6)=   0.000000

     crystal axes: (cart. coord. in units of alat)
               a(1) = (   1.000000   0.000000   0.000000 )  
               a(2) = (   0.500000   0.866025   0.000000 )  
               a(3) = (   0.000000   0.000000   1.281220 )  

     reciprocal axes: (cart. coord. in units 2 pi/alat)
               b(1) = (  1.000000 -0.577350  0.000000 )  
               b(2) = (  0.000000  1.154701  0.000000 )  
               b(3) = (  0.000000  0.000000  0.780506 )  


     PseudoPot. # 1 for Al read from file:
     /home/mini21k/QE/Potential/Al.pbe-n-kjpaw_psl.1.0.0.UPF
     MD5 check sum: cfc449ca30b5f3223ec38ddd88ac046d
     Pseudo is Projector augmented-wave + core cor, Zval =  3.0
     Generated using "atomic" code by A. Dal Corso  v.5.1
     Shape of augmentation charge: PSQ
     Using radial grid of 1135 points,  6 beta functions with: 
                l(1) =   0
                l(2) =   0
                l(3) =   1
                l(4) =   1
                l(5) =   2
                l(6) =   2
     Q(r) pseudized with 0 coefficients 


     PseudoPot. # 2 for O  read from file:
     /home/mini21k/QE/Potential/O.pbe-n-kjpaw_psl.0.1.UPF
     MD5 check sum: 0234752ac141de4415c5fc33072bef88
     Pseudo is Projector augmented-wave + core cor, Zval =  6.0
     Generated using "atomic" code by A. Dal Corso  v.5.0.99 svn rev. 10869
     Shape of augmentation charge: BESSEL
     Using radial grid of 1095 points,  4 beta functions with: 
                l(1) =   0
                l(2) =   0
                l(3) =   1
                l(4) =   1
     Q(r) pseudized with 0 coefficients 


     PseudoPot. # 3 for C  read from file:
     /home/mini21k/QE/Potential/C.pbe-n-kjpaw_psl.1.0.0.UPF
     MD5 check sum: 5d2aebdfa2cae82b50a7e79e9516da0f
     Pseudo is Projector augmented-wave + core cor, Zval =  4.0
     Generated using "atomic" code by A. Dal Corso  v.5.1
     Shape of augmentation charge: PSQ
     Using radial grid of 1073 points,  4 beta functions with: 
                l(1) =   0
                l(2) =   0
                l(3) =   1
                l(4) =   1
     Q(r) pseudized with 0 coefficients 


     atomic species   valence    mass     pseudopotential
        Al             3.00    26.98154     Al( 1.00)
        O              6.00    15.99900     O ( 1.00)
        C              4.00    12.01100     C ( 1.00)

      6 Sym. Ops. (no inversion) found



   Cartesian axes

     site n.     atom                  positions (alat units)
         1           Al  tau(   1) = (   0.1250000   0.0721688   0.0000000  )
         2           Al  tau(   2) = (   0.3750000   0.0721688   0.0000000  )
         3           Al  tau(   3) = (   0.6250000   0.0721688   0.0000000  )
         4           Al  tau(   4) = (   0.8750000   0.0721688   0.0000000  )
         5           Al  tau(   5) = (   0.2500000   0.2886751   0.0000000  )
         6           Al  tau(   6) = (   0.5000000   0.2886751   0.0000000  )
         7           Al  tau(   7) = (   0.7500000   0.2886751   0.0000000  )
         8           Al  tau(   8) = (   1.0000000   0.2886751   0.0000000  )
         9           Al  tau(   9) = (   0.3750000   0.5051815   0.0000000  )
        10           Al  tau(  10) = (   0.6250000   0.5051815   0.0000000  )
        11           Al  tau(  11) = (   0.8750000   0.5051815   0.0000000  )
        12           Al  tau(  12) = (   1.1250000   0.5051815   0.0000000  )
        13           Al  tau(  13) = (   0.5000000   0.7216878   0.0000000  )
        14           Al  tau(  14) = (   0.7500000   0.7216878   0.0000000  )
        15           Al  tau(  15) = (   1.0000000   0.7216878   0.0000000  )
        16           Al  tau(  16) = (   1.2500000   0.7216878   0.0000000  )
        17           Al  tau(  17) = (   0.0000000   0.1443376   0.2041241  )
        18           Al  tau(  18) = (   0.2500000   0.1443376   0.2041241  )
        19           Al  tau(  19) = (   0.5000000   0.1443376   0.2041241  )
        20           Al  tau(  20) = (   0.7500000   0.1443376   0.2041241  )
        21           Al  tau(  21) = (   0.1250000   0.3608439   0.2041241  )
        22           Al  tau(  22) = (   0.3750000   0.3608439   0.2041241  )
        23           Al  tau(  23) = (   0.6250000   0.3608439   0.2041241  )
        24           Al  tau(  24) = (   0.8750000   0.3608439   0.2041241  )
        25           Al  tau(  25) = (   0.2500000   0.5773503   0.2041241  )
        26           Al  tau(  26) = (   0.5000000   0.5773503   0.2041241  )
        27           Al  tau(  27) = (   0.7500000   0.5773503   0.2041241  )
        28           Al  tau(  28) = (   1.0000000   0.5773503   0.2041241  )
        29           Al  tau(  29) = (   0.3750000   0.7938566   0.2041241  )
        30           Al  tau(  30) = (   0.6250000   0.7938566   0.2041241  )
        31           Al  tau(  31) = (   0.8750000   0.7938566   0.2041241  )
        32           Al  tau(  32) = (   1.1250000   0.7938566   0.2041241  )
        33           Al  tau(  33) = (   0.0000000   0.0000000   0.4082483  )
        34           Al  tau(  34) = (   0.2500000   0.0000000   0.4082483  )
        35           Al  tau(  35) = (   0.5000000   0.0000000   0.4082483  )
        36           Al  tau(  36) = (   0.7500000   0.0000000   0.4082483  )
        37           Al  tau(  37) = (   0.1250000   0.2165064   0.4082483  )
        38           Al  tau(  38) = (   0.3750000   0.2165064   0.4082483  )
        39           Al  tau(  39) = (   0.6250000   0.2165064   0.4082483  )
        40           Al  tau(  40) = (   0.8750000   0.2165064   0.4082483  )
        41           Al  tau(  41) = (   0.2500000   0.4330127   0.4082483  )
        42           Al  tau(  42) = (   0.5000000   0.4330127   0.4082483  )
        43           Al  tau(  43) = (   0.7500000   0.4330127   0.4082483  )
        44           Al  tau(  44) = (   1.0000000   0.4330127   0.4082483  )
        45           Al  tau(  45) = (   0.3750000   0.6495191   0.4082483  )
        46           Al  tau(  46) = (   0.6250000   0.6495191   0.4082483  )
        47           Al  tau(  47) = (   0.8750000   0.6495191   0.4082483  )
        48           Al  tau(  48) = (   1.1250000   0.6495191   0.4082483  )
        49           O   tau(  49) = (   0.0000000   0.0000000   0.6828382  )
        50           C   tau(  50) = (   0.0000000   0.0000000   0.5868113  )

     number of k points=     3  Gaussian smearing, width (Ry)=  0.0030
                       cart. coord. in units 2pi/alat
        k(    1) = (   0.0000000   0.0000000   0.0000000), wk =   0.2222222
        k(    2) = (   0.0000000   0.3849002   0.0000000), wk =   1.3333333
        k(    3) = (   0.3333333  -0.5773503   0.0000000), wk =   0.4444444

     Dense  grid:   706589 G-vectors     FFT dimensions: ( 108, 108, 144)

     Smooth grid:   249937 G-vectors     FFT dimensions: (  75,  75, 100)

     Estimated max dynamical RAM per process >     768.14 MB

     Estimated total dynamical RAM >       4.50 GB

     Check: negative core charge=   -0.000001

     Initial potential from superposition of free atoms

     starting charge  153.89003, renormalised to  154.00000
     Starting wfcs are  200 randomized atomic wfcs
     Checking if some PAW data can be deallocated... 

     total cpu time spent up to now is       32.4 secs

     Self-consistent Calculation

     iteration #  1     ecut=    30.00 Ry     beta= 0.70
     Davidson diagonalization with overlap
     ethr =  1.00E-02,  avg # of iterations =  3.7

     negative rho (up, down):  6.759E-06 0.000E+00

     total cpu time spent up to now is       82.4 secs

     total energy              =   -1953.68839858 Ry
     estimated scf accuracy    <       2.54078715 Ry

     iteration #  2     ecut=    30.00 Ry     beta= 0.70
     Davidson diagonalization with overlap
     ethr =  1.65E-03,  avg # of iterations =  6.7

     negative rho (up, down):  7.526E-07 0.000E+00

     total cpu time spent up to now is      148.0 secs

     total energy              =   -1950.66043252 Ry
     estimated scf accuracy    <      36.23475110 Ry

     iteration #  3     ecut=    30.00 Ry     beta= 0.70
     Davidson diagonalization with overlap
     ethr =  1.65E-03,  avg # of iterations =  5.7

     total cpu time spent up to now is      203.5 secs

     total energy              =   -1954.91889676 Ry
     estimated scf accuracy    <       1.29895013 Ry

     iteration #  4     ecut=    30.00 Ry     beta= 0.70
     Davidson diagonalization with overlap
     ethr =  8.43E-04,  avg # of iterations =  5.0

     total cpu time spent up to now is      250.0 secs

     total energy              =   -1954.94842592 Ry
     estimated scf accuracy    <       4.05859585 Ry

     iteration #  5     ecut=    30.00 Ry     beta= 0.70
     Davidson diagonalization with overlap
     ethr =  8.43E-04,  avg # of iterations =  2.0

     total cpu time spent up to now is      290.2 secs

     total energy              =   -1955.15932030 Ry
     estimated scf accuracy    <       0.53105979 Ry

     iteration #  6     ecut=    30.00 Ry     beta= 0.70
     Davidson diagonalization with overlap
     ethr =  3.45E-04,  avg # of iterations =  3.3

     negative rho (up, down):  1.186E-08 0.000E+00

     total cpu time spent up to now is      331.1 secs

     total energy              =   -1955.19277621 Ry
     estimated scf accuracy    <       0.32573906 Ry

     iteration #  7     ecut=    30.00 Ry     beta= 0.70
     Davidson diagonalization with overlap
     ethr =  2.12E-04,  avg # of iterations =  2.0

     negative rho (up, down):  2.466E-07 0.000E+00

     total cpu time spent up to now is      369.2 secs

     total energy              =   -1955.22050063 Ry
     estimated scf accuracy    <       0.04613263 Ry

     iteration #  8     ecut=    30.00 Ry     beta= 0.70
     Davidson diagonalization with overlap
     ethr =  3.00E-05,  avg # of iterations = 11.3

     negative rho (up, down):  1.323E-05 0.000E+00

     total cpu time spent up to now is      422.5 secs

     total energy              =   -1955.23544993 Ry
     estimated scf accuracy    <       0.01971572 Ry

     iteration #  9     ecut=    30.00 Ry     beta= 0.70
     Davidson diagonalization with overlap
     ethr =  1.28E-05,  avg # of iterations =  4.3

     negative rho (up, down):  1.117E-04 0.000E+00

     total cpu time spent up to now is      462.4 secs

     total energy              =   -1955.23574238 Ry
     estimated scf accuracy    <       0.01025801 Ry

     iteration # 10     ecut=    30.00 Ry     beta= 0.70
     Davidson diagonalization with overlap
     c_bands:  2 eigenvalues not converged
     ethr =  6.66E-06,  avg # of iterations =  9.7

     negative rho (up, down):  2.146E-04 0.000E+00

     total cpu time spent up to now is      502.0 secs

     total energy              =   -1955.23609428 Ry
     estimated scf accuracy    <       0.00221599 Ry

     iteration # 11     ecut=    30.00 Ry     beta= 0.70
     Davidson diagonalization with overlap
     ethr =  1.44E-06,  avg # of iterations =  9.7

     negative rho (up, down):  1.622E-04 0.000E+00

     total cpu time spent up to now is      551.0 secs

     total energy              =   -1955.23644255 Ry
     estimated scf accuracy    <       0.00085941 Ry

     iteration # 12     ecut=    30.00 Ry     beta= 0.70
     Davidson diagonalization with overlap
     ethr =  5.58E-07,  avg # of iterations =  2.7

     negative rho (up, down):  1.876E-04 0.000E+00

     total cpu time spent up to now is      594.6 secs

     total energy              =   -1955.23655638 Ry
     estimated scf accuracy    <       0.00031384 Ry

     iteration # 13     ecut=    30.00 Ry     beta= 0.70
     Davidson diagonalization with overlap
     ethr =  2.04E-07,  avg # of iterations =  3.3

     negative rho (up, down):  2.090E-04 0.000E+00

     total cpu time spent up to now is      633.9 secs

     End of self-consistent calculation

          k = 0.0000 0.0000 0.0000 ( 31291 PWs)   bands (ev):

   -24.1021  -8.6727  -8.4671  -7.1351  -7.0851  -7.0731  -7.0731  -7.0660
    -7.0660  -6.9357  -6.3567  -6.3567  -6.1348  -5.4361  -5.4241  -5.4241
    -5.4095  -5.4095  -4.9849  -4.2135  -4.1358  -4.1358  -4.1284  -4.1280
    -4.1280  -4.0511  -2.8389  -2.8297  -2.8297  -2.8281  -2.8281  -2.7128
    -2.7078  -2.7078  -2.6808  -2.6808  -2.6790  -2.6054  -2.5280  -2.5280
    -2.5139  -2.5139  -2.5125  -2.2142  -1.3477  -1.3477  -1.3268  -1.0955
    -0.8187  -0.8187  -0.7588  -0.0923  -0.0923  -0.0379  -0.0379  -0.0333
     0.0128   0.2068   0.2068   0.2201   0.2287   0.2287   0.7118   1.4166
     1.4166   1.4714   1.4714   1.4797   1.4797   1.4802   1.4857   1.5449
     1.6271   1.6271   1.7073   1.7191   1.7191   1.7353   1.7382   1.7382
     1.8323   2.3608   2.7283   2.7284   2.8638   2.8638   2.8649   2.9145
     2.9815   2.9816   3.1947   3.1954

          k = 0.0000 0.3849 0.0000 ( 31213 PWs)   bands (ev):

   -24.1018  -8.6216  -8.3577  -7.8928  -7.4129  -7.3993  -6.8200  -6.4771
    -6.4282  -6.4036  -6.3407  -6.2930  -6.0313  -5.8973  -5.7404  -5.5151
    -5.4264  -5.3358  -4.7672  -4.6840  -4.4487  -4.2616  -4.0517  -3.9723
    -3.9574  -3.7968  -3.7581  -3.5499  -3.4908  -3.4681  -3.1520  -2.9886
    -2.8082  -2.5277  -2.5272  -2.3680  -2.3382  -2.1852  -2.0820  -1.9069
    -1.8727  -1.6626  -1.5961  -1.5901  -1.2374  -1.1945  -0.9838  -0.9593
    -0.9045  -0.7732  -0.6549  -0.6484  -0.4796  -0.3239  -0.3069  -0.1227
    -0.0994  -0.0126  -0.0060   0.1055   0.3254   0.3976   0.8130   0.8226
     0.8428   0.8822   0.9115   1.0001   1.1069   1.1125   1.1349   1.2667
     1.5324   1.5602   1.6703   1.7108   1.8308   1.8548   1.9297   2.3228
     2.3289   2.4928   2.5585   2.5754   2.7723   2.8830   2.9076   3.0094
     3.0216   3.0984   3.1047   3.1823

          k = 0.3333-0.5774 0.0000 ( 31275 PWs)   bands (ev):

   -24.1020  -8.6056  -8.0693  -8.0685  -8.0244  -6.7270  -6.5855  -6.5839
    -6.5261  -6.4376  -6.4371  -6.3251  -6.3247  -5.7586  -5.1105  -5.1093
    -5.1088  -5.0974  -5.0960  -5.0631  -4.9322  -4.9313  -4.7399  -3.8102
    -3.8085  -3.6361  -3.4817  -3.4810  -3.4803  -3.4781  -3.4765  -3.2102
    -2.3496  -2.3496  -2.2430  -2.2378  -2.2297  -2.2070  -2.1985  -2.1949
    -2.1205  -0.9796  -0.9789  -0.9458  -0.9452  -0.9445  -0.8815  -0.8811
    -0.8796  -0.8527  -0.8189  -0.8166  -0.7593  -0.7134  -0.7134  -0.4390
    -0.3456  -0.3363  -0.1838   0.2847   0.6476   0.6546   0.6796   0.6806
     0.6807   0.6837   0.6853   0.6900   0.9023   1.0263   1.0801   1.8095
     1.8741   1.9002   1.9224   1.9935   2.0434   2.0621   2.0698   2.0905
     2.0962   2.0990   2.2737   2.2750   2.3142   2.3501   2.3505   2.3511
     2.4653   2.7385   2.7391   3.1087

     the Fermi energy is     1.8765 ev

!    total energy              =   -1955.23656030 Ry

     total all-electron energy =    -23536.701066 Ry
     estimated scf accuracy    <       0.00004100 Ry
     smearing contrib. (-TS)   =      -0.00221242 Ry
     internal energy E=F+TS    =   -1955.23434788 Ry

     The total energy is F=E-TS. E is the sum of the following terms:
     one-electron contribution =    -674.54642584 Ry
     hartree contribution      =     385.24259556 Ry
     xc contribution           =    -133.57896182 Ry
     ewald contribution        =     147.93457130 Ry
     one-center paw contrib.   =   -1680.28612707 Ry

     convergence has been achieved in  13 iterations

     negative rho (up, down):  2.090E-04 0.000E+00

     Forces acting on atoms (cartesian axes, Ry/au):

     atom    1 type  1   force =     0.00146689    0.00084691    0.00268970
     atom    2 type  1   force =    -0.00165305   -0.00198830    0.00425815
     atom    3 type  1   force =     0.00165305   -0.00198830    0.00425815
     atom    4 type  1   force =    -0.00146689    0.00084691    0.00268970
     atom    5 type  1   force =    -0.00254844   -0.00043744    0.00425815
     atom    6 type  1   force =     0.00000000    0.00000000    0.00315819
     atom    7 type  1   force =     0.00254844   -0.00043744    0.00425815
     atom    8 type  1   force =     0.00000000   -0.00291042    0.00582746
     atom    9 type  1   force =    -0.00089539    0.00242573    0.00425815
     atom   10 type  1   force =     0.00089539    0.00242573    0.00425815
     atom   11 type  1   force =    -0.00249167   -0.00143857    0.00421628
     atom   12 type  1   force =     0.00249167   -0.00143857    0.00421628
     atom   13 type  1   force =     0.00000000   -0.00169382    0.00268970
     atom   14 type  1   force =    -0.00252050    0.00145521    0.00582746
     atom   15 type  1   force =     0.00000000    0.00287713    0.00421628
     atom   16 type  1   force =     0.00252050    0.00145521    0.00582746
     atom   17 type  1   force =     0.00000000    0.00058024   -0.00176299
     atom   18 type  1   force =    -0.00216197   -0.00124822   -0.00096529
     atom   19 type  1   force =     0.00000000   -0.00057344    0.00252611
     atom   20 type  1   force =     0.00216197   -0.00124822   -0.00096529
     atom   21 type  1   force =    -0.00047637   -0.00212584    0.00011505
     atom   22 type  1   force =    -0.00049662    0.00028672    0.00252611
     atom   23 type  1   force =     0.00049662    0.00028672    0.00252611
     atom   24 type  1   force =     0.00047637   -0.00212584    0.00011505
     atom   25 type  1   force =     0.00160285    0.00147547    0.00011505
     atom   26 type  1   force =     0.00000000    0.00249643   -0.00096529
     atom   27 type  1   force =    -0.00160285    0.00147547    0.00011505
     atom   28 type  1   force =     0.00000000    0.00000000    0.00365226
     atom   29 type  1   force =    -0.00050250   -0.00029012   -0.00176299
     atom   30 type  1   force =     0.00050250   -0.00029012   -0.00176299
     atom   31 type  1   force =    -0.00207922    0.00065037    0.00011505
     atom   32 type  1   force =     0.00207922    0.00065037    0.00011505
     atom   33 type  1   force =     0.00000000    0.00000000    0.00887370
     atom   34 type  1   force =     0.00057596    0.00090902   -0.00616591
     atom   35 type  1   force =     0.00000000    0.00078561   -0.00353017
     atom   36 type  1   force =    -0.00057596    0.00090902   -0.00616591
     atom   37 type  1   force =     0.00107521    0.00004429   -0.00616591
     atom   38 type  1   force =    -0.00127095   -0.00073378   -0.00409737
     atom   39 type  1   force =     0.00127095   -0.00073378   -0.00409737
     atom   40 type  1   force =    -0.00107521    0.00004429   -0.00616591
     atom   41 type  1   force =     0.00068036   -0.00039281   -0.00353017
     atom   42 type  1   force =     0.00000000    0.00146757   -0.00409737
     atom   43 type  1   force =    -0.00068036   -0.00039281   -0.00353017
     atom   44 type  1   force =     0.00000000   -0.00043171   -0.00546170
     atom   45 type  1   force =     0.00049925   -0.00095330   -0.00616591
     atom   46 type  1   force =    -0.00049925   -0.00095330   -0.00616591
     atom   47 type  1   force =    -0.00037387    0.00021586   -0.00546170
     atom   48 type  1   force =     0.00037387    0.00021586   -0.00546170
     atom   49 type  2   force =     0.00000000    0.00000000    0.30343638
     atom   50 type  3   force =     0.00000000    0.00000000   -0.30669033

     Total force =     0.432118     Total SCF correction =     0.006844

     BFGS Geometry Optimization
     Energy error            =      0.0E+00
     Gradient error          =      3.1E-01

     number of scf cycles    =   1
     number of bfgs steps    =   0

     energy   new            =   -1955.2365602989 Ry

     new trust radius        =       0.3066903303 bohr
     new conv_thr            =       0.0001000000 Ry


ATOMIC_POSITIONS (angstrom)
Al            1.4318912319        0.8267027882        0.0000000000    0   0   0
Al            4.2956736957        0.8267027882        0.0000000000    0   0   0
Al            7.1594561595        0.8267027882        0.0000000000    0   0   0
Al           10.0232386233        0.8267027882        0.0000000000    0   0   0
Al            2.8637824638        3.3068111528        0.0000000000    0   0   0
Al            5.7275649276        3.3068111528        0.0000000000    0   0   0
Al            8.5913473914        3.3068111528        0.0000000000    0   0   0
Al           11.4551298552        3.3068111528        0.0000000000    0   0   0
Al            4.2956736957        5.7869195173        0.0000000000    0   0   0
Al            7.1594561595        5.7869195173        0.0000000000    0   0   0
Al           10.0232386233        5.7869195173        0.0000000000    0   0   0
Al           12.8870210871        5.7869195173        0.0000000000    0   0   0
Al            5.7275649276        8.2670278819        0.0000000000    0   0   0
Al            8.5913473914        8.2670278819        0.0000000000    0   0   0
Al           11.4551298552        8.2670278819        0.0000000000    0   0   0
Al           14.3189123190        8.2670278819        0.0000000000    0   0   0
Al            0.0000000000        1.6537126265        2.3373356542
Al            2.8626383965        1.6527450488        2.3377577786
Al            5.7275649276        1.6531021226        2.3396053492
Al            8.5924914587        1.6527450488        2.3377577786
Al            1.4316391465        4.1323889945        2.3383294714
Al            4.2954108970        4.1336656678        2.3396053492
Al            7.1597189582        4.1336656678        2.3396053492
Al           10.0234907087        4.1323889945        2.3383294714
Al            2.8646306533        6.6144030911        2.3383294714
Al            5.7275649276        6.6149433606        2.3377577786
Al            8.5904992020        6.6144030911        2.3383294714
Al           11.4551298552        6.6136223055        2.3402012816
Al            4.2954077825        9.0935771450        2.3373356542
Al            7.1597220727        9.0935771450        2.3373356542
Al           10.0221383484        9.0940748309        2.3383294714
Al           12.8881213620        9.0940748309        2.3383294714
Al            0.0000000000        0.0000000000        4.6812329394
Al            2.8640872485        0.0004810302        4.6732743226
Al            5.7275649276        0.0004157295        4.6746690944
Al            8.5910426067        0.0004810302        4.6732743226
Al            1.4324602086        2.4801318007        4.6732743226
Al            4.2950011373        2.4797200628        4.6743689449
Al            7.1601287179        2.4797200628        4.6743689449
Al           10.0226696466        2.4801318007        4.6732743226
Al            2.8641424961        4.9600088644        4.6746690944
Al            5.7275649276        4.9609933327        4.6743689449
Al            8.5909873591        4.9600088644        4.6746690944
Al           11.4551298552        4.9599882775        4.6736469753
Al            4.2959378878        7.4398206273        4.6732743226
Al            7.1591919675        7.4398206273        4.6732743226
Al           10.0230407784        7.4404393195        4.6736469753
Al           12.8872189321        7.4404393195        4.6736469753
O             0.0000000000        0.0000000000        7.9825716161
C             0.0000000000        0.0000000000        6.5597064664



     Writing output data file ./output/pwscf.save/
     NEW-OLD atomic charge density approx. for the potential

     Check: negative core charge=   -0.000001

     negative rho (up, down):  1.536E-04 0.000E+00

     total cpu time spent up to now is      669.4 secs

     Self-consistent Calculation

     iteration #  1     ecut=    30.00 Ry     beta= 0.70
     Davidson diagonalization with overlap
     c_bands:  1 eigenvalues not converged
     c_bands:  5 eigenvalues not converged
     ethr =  1.00E-06,  avg # of iterations = 25.7

     negative rho (up, down):  2.198E-04 0.000E+00

     total cpu time spent up to now is      815.5 secs

     total energy              =   -1954.68031440 Ry
     estimated scf accuracy    <       0.61545527 Ry

     iteration #  2     ecut=    30.00 Ry     beta= 0.70
     Davidson diagonalization with overlap
     ethr =  4.00E-04,  avg # of iterations =  8.0

     negative rho (up, down):  2.208E-03 0.000E+00

     total cpu time spent up to now is      865.4 secs

     total energy              =   -1952.58220204 Ry
     estimated scf accuracy    <      32.62366505 Ry

     iteration #  3     ecut=    30.00 Ry     beta= 0.70
     Davidson diagonalization with overlap
     ethr =  4.00E-04,  avg # of iterations = 10.7

     negative rho (up, down):  6.499E-04 0.000E+00

     total cpu time spent up to now is      936.2 secs

     total energy              =   -1954.96926135 Ry
     estimated scf accuracy    <       1.29682413 Ry

     iteration #  4     ecut=    30.00 Ry     beta= 0.70
     Davidson diagonalization with overlap
     ethr =  4.00E-04,  avg # of iterations =  3.0

     negative rho (up, down):  3.362E-04 0.000E+00

     total cpu time spent up to now is      977.0 secs

     total energy              =   -1955.08042037 Ry
     estimated scf accuracy    <       0.36654913 Ry

     iteration #  5     ecut=    30.00 Ry     beta= 0.70
     Davidson diagonalization with overlap
     ethr =  2.38E-04,  avg # of iterations =  6.3

     negative rho (up, down):  1.847E-04 0.000E+00

     total cpu time spent up to now is     1022.5 secs

     total energy              =   -1955.11898395 Ry
     estimated scf accuracy    <       0.02905701 Ry

     iteration #  6     ecut=    30.00 Ry     beta= 0.70
     Davidson diagonalization with overlap
     ethr =  1.89E-05,  avg # of iterations = 10.3

     negative rho (up, down):  1.813E-04 0.000E+00

     total cpu time spent up to now is     1072.9 secs

     total energy              =   -1955.12378531 Ry
     estimated scf accuracy    <       0.01060538 Ry

     iteration #  7     ecut=    30.00 Ry     beta= 0.70
     Davidson diagonalization with overlap
     ethr =  6.89E-06,  avg # of iterations =  4.7

     negative rho (up, down):  1.739E-04 0.000E+00

     total cpu time spent up to now is     1116.2 secs

     total energy              =   -1955.12480354 Ry
     estimated scf accuracy    <       0.00551495 Ry

     iteration #  8     ecut=    30.00 Ry     beta= 0.70
     Davidson diagonalization with overlap
     ethr =  3.58E-06,  avg # of iterations =  5.3

     negative rho (up, down):  1.687E-04 0.000E+00

     total cpu time spent up to now is     1159.1 secs

     total energy              =   -1955.12528107 Ry
     estimated scf accuracy    <       0.00295922 Ry

     iteration #  9     ecut=    30.00 Ry     beta= 0.70
     Davidson diagonalization with overlap
     c_bands:  1 eigenvalues not converged
     ethr =  1.92E-06,  avg # of iterations =  9.3

     negative rho (up, down):  1.671E-04 0.000E+00

     total cpu time spent up to now is     1198.6 secs

     total energy              =   -1955.12562681 Ry
     estimated scf accuracy    <       0.00033515 Ry

     iteration # 10     ecut=    30.00 Ry     beta= 0.70
     Davidson diagonalization with overlap
     ethr =  2.18E-07,  avg # of iterations =  6.0

     negative rho (up, down):  1.658E-04 0.000E+00

     total cpu time spent up to now is     1248.8 secs

     total energy              =   -1955.12570127 Ry
     estimated scf accuracy    <       0.00030995 Ry

     iteration # 11     ecut=    30.00 Ry     beta= 0.70
     Davidson diagonalization with overlap
     ethr =  2.01E-07,  avg # of iterations =  2.0

     negative rho (up, down):  1.656E-04 0.000E+00

     total cpu time spent up to now is     1287.6 secs

     total energy              =   -1955.12569120 Ry
     estimated scf accuracy    <       0.00018994 Ry

     iteration # 12     ecut=    30.00 Ry     beta= 0.70
     Davidson diagonalization with overlap
     ethr =  1.23E-07,  avg # of iterations =  2.0

     negative rho (up, down):  1.650E-04 0.000E+00

     total cpu time spent up to now is     1325.8 secs

     End of self-consistent calculation

          k = 0.0000 0.0000 0.0000 ( 31291 PWs)   bands (ev):

   -18.2555  -8.7713  -8.3174  -7.2348  -7.2208  -7.2208  -7.2086  -7.2086
    -7.1505  -6.9526  -5.5830  -5.5698  -5.5698  -5.5671  -5.5671  -5.4926
    -4.5160  -4.3238  -4.2895  -4.2895  -4.2753  -4.2753  -4.2748  -3.9166
    -3.0770  -3.0770  -2.9775  -2.9649  -2.9649  -2.8596  -2.8596  -2.8575
    -2.8368  -2.8368  -2.8267  -2.7444  -2.7255  -2.7255  -2.6562  -2.6562
    -2.6558  -2.2971  -2.2971  -2.1911  -1.4669  -1.4660  -1.4660  -1.2084
    -0.9542  -0.9542  -0.8790  -0.2055  -0.2055  -0.1709  -0.1709  -0.1690
    -0.1135   0.0883   0.1016   0.1016   0.1057   0.1057   0.6499   1.2584
     1.2584   1.3261   1.3261   1.3319   1.3319   1.3356   1.3378   1.4250
     1.4694   1.4694   1.5673   1.5758   1.5758   1.5907   1.5950   1.5950
     1.7519   2.2787   2.3897   2.3898   2.7252   2.7252   2.7274   2.7809
     2.8006   2.8008   3.0696   3.0701

          k = 0.0000 0.3849 0.0000 ( 31213 PWs)   bands (ev):

   -18.2554  -8.6375  -8.3268  -7.9866  -7.5451  -7.5006  -6.8332  -6.5564
    -6.5491  -6.3501  -6.0639  -5.8959  -5.8496  -5.5771  -5.5749  -4.9376
    -4.9164  -4.6139  -4.4892  -4.3543  -4.1499  -4.1239  -4.0765  -3.9463
    -3.8671  -3.6625  -3.6437  -3.5617  -3.3202  -3.0720  -2.9653  -2.6939
    -2.6765  -2.6485  -2.4972  -2.4611  -2.4173  -2.2309  -2.1546  -1.9911
    -1.9911  -1.7602  -1.7351  -1.7030  -1.3551  -1.2917  -1.1157  -1.0996
    -1.0030  -0.9121  -0.7988  -0.7951  -0.5903  -0.4612  -0.4494  -0.2519
    -0.2036  -0.1479  -0.1466   0.0000   0.1904   0.2761   0.6803   0.6895
     0.7213   0.7389   0.7687   0.8813   0.9628   0.9660   1.0074   1.1374
     1.3917   1.4284   1.5259   1.5615   1.6854   1.7131   1.8321   2.1802
     2.1841   2.3115   2.3556   2.4027   2.6218   2.6496   2.7604   2.8793
     2.8868   2.9499   2.9643   3.0185

          k = 0.3333-0.5774 0.0000 ( 31275 PWs)   bands (ev):

   -18.2555  -8.5280  -8.2171  -8.2165  -7.9917  -6.7252  -6.7218  -6.7073
    -6.5594  -6.5582  -6.4080  -5.2613  -5.2574  -5.2561  -5.2490  -5.2488
    -5.2462  -5.0846  -5.0829  -5.0817  -4.3206  -3.9547  -3.9547  -3.7488
    -3.6538  -3.6529  -3.6255  -3.6254  -3.6225  -3.1658  -2.6570  -2.6564
    -2.3929  -2.3910  -2.3867  -2.3766  -2.3634  -2.3527  -2.2578  -2.2449
    -2.1818  -1.0822  -1.0822  -1.0802  -1.0570  -1.0548  -1.0248  -1.0207
    -1.0099  -0.9790  -0.9651  -0.9559  -0.9030  -0.8326  -0.8317  -0.5554
    -0.4801  -0.4797  -0.2525   0.1411   0.5070   0.5195   0.5353   0.5356
     0.5372   0.5419   0.5588   0.5608   0.7979   0.8770   0.9508   1.6011
     1.6570   1.7554   1.7959   1.8481   1.9100   1.9371   1.9447   1.9673
     1.9681   1.9686   2.1084   2.1490   2.1621   2.2102   2.2122   2.2132
     2.4106   2.6302   2.6316   3.0369

     the Fermi energy is     1.7334 ev

!    total energy              =   -1955.12563215 Ry

     total all-electron energy =    -23536.590138 Ry
     estimated scf accuracy    <       0.00007951 Ry
     smearing contrib. (-TS)   =      -0.00164772 Ry
     internal energy E=F+TS    =   -1955.12398443 Ry

     The total energy is F=E-TS. E is the sum of the following terms:
     one-electron contribution =    -666.30901182 Ry
     hartree contribution      =     381.33134963 Ry
     xc contribution           =    -133.22347259 Ry
     ewald contribution        =     143.37071885 Ry
     one-center paw contrib.   =   -1680.29356851 Ry

     convergence has been achieved in  12 iterations

     negative rho (up, down):  1.650E-04 0.000E+00

     Forces acting on atoms (cartesian axes, Ry/au):

     atom    1 type  1   force =     0.00248899    0.00143702    0.00278988
     atom    2 type  1   force =    -0.00201370   -0.00214829    0.00410924
     atom    3 type  1   force =     0.00201370   -0.00214829    0.00410924
     atom    4 type  1   force =    -0.00248899    0.00143702    0.00278988
     atom    5 type  1   force =    -0.00286732   -0.00066977    0.00410924
     atom    6 type  1   force =     0.00000000    0.00000000    0.00286758
     atom    7 type  1   force =     0.00286732   -0.00066977    0.00410924
     atom    8 type  1   force =     0.00000000   -0.00318982    0.00577303
     atom    9 type  1   force =    -0.00085362    0.00281806    0.00410924
     atom   10 type  1   force =     0.00085362    0.00281806    0.00410924
     atom   11 type  1   force =    -0.00299029   -0.00172644    0.00385437
     atom   12 type  1   force =     0.00299029   -0.00172644    0.00385437
     atom   13 type  1   force =     0.00000000   -0.00287403    0.00278988
     atom   14 type  1   force =    -0.00276246    0.00159491    0.00577303
     atom   15 type  1   force =     0.00000000    0.00345289    0.00385437
     atom   16 type  1   force =     0.00276246    0.00159491    0.00577303
     atom   17 type  1   force =     0.00000000    0.00069427    0.00012067
     atom   18 type  1   force =    -0.00248234   -0.00143318   -0.00059140
     atom   19 type  1   force =     0.00000000   -0.00100270    0.00174062
     atom   20 type  1   force =     0.00248234   -0.00143318   -0.00059140
     atom   21 type  1   force =    -0.00079717   -0.00196394   -0.00061771
     atom   22 type  1   force =    -0.00086836    0.00050135    0.00174062
     atom   23 type  1   force =     0.00086836    0.00050135    0.00174062
     atom   24 type  1   force =     0.00079717   -0.00196394   -0.00061771
     atom   25 type  1   force =     0.00130224    0.00167234   -0.00061771
     atom   26 type  1   force =     0.00000000    0.00286635   -0.00059140
     atom   27 type  1   force =    -0.00130224    0.00167234   -0.00061771
     atom   28 type  1   force =     0.00000000    0.00000000    0.00347532
     atom   29 type  1   force =    -0.00060125   -0.00034713    0.00012067
     atom   30 type  1   force =     0.00060125   -0.00034713    0.00012067
     atom   31 type  1   force =    -0.00209941    0.00029161   -0.00061771
     atom   32 type  1   force =     0.00209941    0.00029161   -0.00061771
     atom   33 type  1   force =     0.00000000    0.00000000   -0.03480489
     atom   34 type  1   force =     0.00042987   -0.00055586   -0.00430889
     atom   35 type  1   force =     0.00000000    0.00025697   -0.00316158
     atom   36 type  1   force =    -0.00042987   -0.00055586   -0.00430889
     atom   37 type  1   force =    -0.00026646    0.00065020   -0.00430889
     atom   38 type  1   force =    -0.00172935   -0.00099844   -0.00354171
     atom   39 type  1   force =     0.00172935   -0.00099844   -0.00354171
     atom   40 type  1   force =     0.00026646    0.00065020   -0.00430889
     atom   41 type  1   force =     0.00022254   -0.00012848   -0.00316158
     atom   42 type  1   force =     0.00000000    0.00199689   -0.00354171
     atom   43 type  1   force =    -0.00022254   -0.00012848   -0.00316158
     atom   44 type  1   force =     0.00000000   -0.00183544   -0.00479322
     atom   45 type  1   force =    -0.00069632   -0.00009434   -0.00430889
     atom   46 type  1   force =     0.00069632   -0.00009434   -0.00430889
     atom   47 type  1   force =    -0.00158954    0.00091772   -0.00479322
     atom   48 type  1   force =     0.00158954    0.00091772   -0.00479322
     atom   49 type  2   force =     0.00000000    0.00000000   -0.39273807
     atom   50 type  3   force =     0.00000000    0.00000000    0.41953225

     Total force =     0.576034     Total SCF correction =     0.010174
     Energy error            =      1.1E-01
     Gradient error          =      4.2E-01

     number of scf cycles    =   2
     number of bfgs steps    =   1

     energy   old            =   -1955.2365602989 Ry
     energy   new            =   -1955.1256321482 Ry

     CASE: energy  _new > energy  _old

     new trust radius        =       0.0961973817 bohr
     new conv_thr            =       0.0001000000 Ry


ATOMIC_POSITIONS (angstrom)
Al            1.4318912319        0.8267027882        0.0000000000    0   0   0
Al            4.2956736957        0.8267027882        0.0000000000    0   0   0
Al            7.1594561595        0.8267027882        0.0000000000    0   0   0
Al           10.0232386233        0.8267027882        0.0000000000    0   0   0
Al            2.8637824638        3.3068111528        0.0000000000    0   0   0
Al            5.7275649276        3.3068111528        0.0000000000    0   0   0
Al            8.5913473914        3.3068111528        0.0000000000    0   0   0
Al           11.4551298552        3.3068111528        0.0000000000    0   0   0
Al            4.2956736957        5.7869195173        0.0000000000    0   0   0
Al            7.1594561595        5.7869195173        0.0000000000    0   0   0
Al           10.0232386233        5.7869195173        0.0000000000    0   0   0
Al           12.8870210871        5.7869195173        0.0000000000    0   0   0
Al            5.7275649276        8.2670278819        0.0000000000    0   0   0
Al            8.5913473914        8.2670278819        0.0000000000    0   0   0
Al           11.4551298552        8.2670278819        0.0000000000    0   0   0
Al           14.3189123190        8.2670278819        0.0000000000    0   0   0
Al            0.0000000000        1.6535018866        2.3379759628
Al            2.8634236123        1.6531983934        2.3381083675
Al            5.7275649276        1.6533103942        2.3386878819
Al            8.5917062429        1.6531983934        2.3381083675
Al            1.4318121621        4.1331610870        2.3382876864
Al            4.2955912655        4.1335615320        2.3386878819
Al            7.1595385897        4.1335615320        2.3386878819
Al           10.0233176932        4.1331610870        2.3382876864
Al            2.8640485094        6.6138672090        2.3382876864
Al            5.7275649276        6.6140366715        2.3381083675
Al            8.5910813458        6.6138672090        2.3382876864
Al           11.4551298552        6.6136223055        2.3388748038
Al            4.2955902886        9.0936825150        2.3379759628
Al            7.1595395666        9.0936825150        2.3379759628
Al           10.0228935079        9.0938386206        2.3382876864
Al           12.8873662025        9.0938386206        2.3382876864
Al            0.0000000000        0.0000000000        4.6780100659
Al            2.8638780635        0.0001508813        4.6755137430
Al            5.7275649276        0.0001303989        4.6759512311
Al            8.5912517918        0.0001508813        4.6755137430
Al            1.4320696988        2.4801157156        4.6755137430
Al            4.2954627391        2.4799865687        4.6758570854
Al            7.1596671161        2.4799865687        4.6758570854
Al           10.0230601564        2.4801157156        4.6755137430
Al            2.8638953926        4.9601515297        4.6759512311
Al            5.7275649276        4.9604603209        4.6758570854
Al            8.5912344626        4.9601515297        4.6759512311
Al           11.4551298552        4.9601450723        4.6756306303
Al            4.2957565630        7.4401668613        4.6755137430
Al            7.1593732923        7.4401668613        4.6755137430
Al           10.0231765667        7.4403609221        4.6756306303
Al           12.8870831437        7.4403609221        4.6756306303
O             0.0000000000        0.0000000000        7.8723653605
C             0.0000000000        0.0000000000        6.6710945379



     Writing output data file ./output/pwscf.save/
     NEW-OLD atomic charge density approx. for the potential

     Check: negative core charge=   -0.000001

     negative rho (up, down):  1.503E-04 0.000E+00

     total cpu time spent up to now is     1361.2 secs

     Self-consistent Calculation

     iteration #  1     ecut=    30.00 Ry     beta= 0.70
     Davidson diagonalization with overlap
     c_bands:  1 eigenvalues not converged
     ethr =  1.00E-06,  avg # of iterations = 18.7

     negative rho (up, down):  1.743E-04 0.000E+00

     total cpu time spent up to now is     1460.4 secs

     total energy              =   -1955.22420050 Ry
     estimated scf accuracy    <       0.06261793 Ry

     iteration #  2     ecut=    30.00 Ry     beta= 0.70
     Davidson diagonalization with overlap
     ethr =  4.07E-05,  avg # of iterations = 10.7

     negative rho (up, down):  8.286E-04 0.000E+00

     total cpu time spent up to now is     1518.1 secs

     total energy              =   -1955.06147686 Ry
     estimated scf accuracy    <       2.24640226 Ry

     iteration #  3     ecut=    30.00 Ry     beta= 0.70
     Davidson diagonalization with overlap
     ethr =  4.07E-05,  avg # of iterations =  8.7

     negative rho (up, down):  3.669E-04 0.000E+00

     total cpu time spent up to now is     1572.4 secs

     total energy              =   -1955.22633334 Ry
     estimated scf accuracy    <       0.18844249 Ry

     iteration #  4     ecut=    30.00 Ry     beta= 0.70
     Davidson diagonalization with overlap
     ethr =  4.07E-05,  avg # of iterations = 11.0

     negative rho (up, down):  1.947E-04 0.000E+00

     total cpu time spent up to now is     1618.3 secs

     total energy              =   -1955.23929161 Ry
     estimated scf accuracy    <       0.15346160 Ry

     iteration #  5     ecut=    30.00 Ry     beta= 0.70
     Davidson diagonalization with overlap
     ethr =  4.07E-05,  avg # of iterations =  2.0

     negative rho (up, down):  1.830E-04 0.000E+00

     total cpu time spent up to now is     1657.6 secs

     total energy              =   -1955.24898740 Ry
     estimated scf accuracy    <       0.01338671 Ry

     iteration #  6     ecut=    30.00 Ry     beta= 0.70
     Davidson diagonalization with overlap
     ethr =  8.69E-06,  avg # of iterations =  6.7

     negative rho (up, down):  1.815E-04 0.000E+00

     total cpu time spent up to now is     1697.1 secs

     total energy              =   -1955.25049203 Ry
     estimated scf accuracy    <       0.00201942 Ry

     iteration #  7     ecut=    30.00 Ry     beta= 0.70
     Davidson diagonalization with overlap
     ethr =  1.31E-06,  avg # of iterations =  7.3

     negative rho (up, down):  1.830E-04 0.000E+00

     total cpu time spent up to now is     1746.9 secs

     total energy              =   -1955.25094102 Ry
     estimated scf accuracy    <       0.00146094 Ry

     iteration #  8     ecut=    30.00 Ry     beta= 0.70
     Davidson diagonalization with overlap
     ethr =  9.49E-07,  avg # of iterations =  3.3

     negative rho (up, down):  1.849E-04 0.000E+00

     total cpu time spent up to now is     1786.1 secs

     total energy              =   -1955.25105886 Ry
     estimated scf accuracy    <       0.00046301 Ry

     iteration #  9     ecut=    30.00 Ry     beta= 0.70
     Davidson diagonalization with overlap
     ethr =  3.01E-07,  avg # of iterations =  6.0

     negative rho (up, down):  1.868E-04 0.000E+00

     total cpu time spent up to now is     1824.7 secs

     total energy              =   -1955.25107916 Ry
     estimated scf accuracy    <       0.00015416 Ry

     iteration # 10     ecut=    30.00 Ry     beta= 0.70
     Davidson diagonalization with overlap
     ethr =  1.00E-07,  avg # of iterations =  4.7

     negative rho (up, down):  1.872E-04 0.000E+00

     total cpu time spent up to now is     1864.6 secs

     End of self-consistent calculation

          k = 0.0000 0.0000 0.0000 ( 31291 PWs)   bands (ev):

   -22.0072  -8.6748  -8.3565  -7.1332  -7.1184  -7.1184  -7.1086  -7.1086
    -7.0974  -6.9451  -5.8816  -5.4915  -5.4915  -5.4841  -5.4700  -5.4700
    -4.9189  -4.8998  -4.8998  -4.2534  -4.1760  -4.1760  -4.1733  -4.1733
    -4.1730  -4.0704  -2.8841  -2.8715  -2.8715  -2.8590  -2.8590  -2.7579
    -2.7533  -2.7533  -2.7252  -2.7249  -2.7249  -2.6511  -2.5692  -2.5692
    -2.5586  -2.5586  -2.5577  -2.2167  -1.3913  -1.3913  -1.3715  -1.1311
    -0.8635  -0.8635  -0.7983  -0.1341  -0.1341  -0.0795  -0.0795  -0.0758
    -0.0286   0.1717   0.1717   0.1772   0.1886   0.1886   0.6941   1.3666
     1.3666   1.4248   1.4248   1.4331   1.4331   1.4355   1.4409   1.5074
     1.5756   1.5756   1.6623   1.6745   1.6745   1.6899   1.6931   1.6931
     1.8065   2.3355   2.6096   2.6096   2.8195   2.8195   2.8213   2.8712
     2.9119   2.9119   3.1544   3.1549

          k = 0.0000 0.3849 0.0000 ( 31213 PWs)   bands (ev):

   -22.0069  -8.5617  -8.3204  -7.9185  -7.4438  -7.4330  -6.7896  -6.4735
    -6.4554  -6.3262  -5.9928  -5.9116  -5.8045  -5.5208  -5.4749  -5.2726
    -4.9570  -4.9417  -4.7705  -4.6932  -4.4887  -4.2965  -4.0819  -4.0152
    -3.9963  -3.8381  -3.7988  -3.5855  -3.5349  -3.5063  -3.1872  -3.0188
    -2.8420  -2.5729  -2.5722  -2.4097  -2.3818  -2.2243  -2.1154  -1.9499
    -1.9138  -1.6973  -1.6415  -1.6340  -1.2779  -1.2313  -1.0276  -1.0041
    -0.9387  -0.8177  -0.7010  -0.6936  -0.5152  -0.3686  -0.3517  -0.1651
    -0.1354  -0.0565  -0.0519   0.0720   0.2807   0.3588   0.7690   0.7787
     0.8043   0.8355   0.8665   0.9631   1.0625   1.0653   1.0941   1.2243
     1.4876   1.5180   1.6244   1.6623   1.7844   1.8098   1.8994   2.2794
     2.2833   2.4640   2.4831   2.5038   2.7333   2.7789   2.8619   2.9676
     2.9741   3.0520   3.0601   3.1443

          k = 0.3333-0.5774 0.0000 ( 31275 PWs)   bands (ev):

   -22.0071  -8.4995  -8.1161  -8.1139  -7.9972  -6.6366  -6.6242  -6.6221
    -6.5030  -6.4619  -6.4607  -5.5566  -5.1775  -5.1774  -5.1562  -5.1547
    -5.1521  -5.1020  -5.0337  -5.0330  -4.8438  -4.8435  -4.7270  -3.8499
    -3.8464  -3.6747  -3.5278  -3.5270  -3.5252  -3.5124  -3.5111  -3.2173
    -2.3870  -2.3866  -2.2882  -2.2839  -2.2747  -2.2522  -2.2453  -2.2387
    -2.1458  -1.0151  -1.0134  -0.9893  -0.9891  -0.9865  -0.9269  -0.9267
    -0.9256  -0.8921  -0.8648  -0.8614  -0.8051  -0.7540  -0.7521  -0.4746
    -0.3895  -0.3827  -0.2066   0.2384   0.6019   0.6116   0.6350   0.6357
     0.6359   0.6400   0.6430   0.6469   0.8704   0.9779   1.0381   1.7419
     1.8055   1.8488   1.8818   1.9451   2.0013   2.0253   2.0272   2.0505
     2.0553   2.0573   2.2200   2.2351   2.2643   2.3057   2.3058   2.3072
     2.4484   2.7035   2.7056   3.2051

     the Fermi energy is     1.8285 ev

!    total energy              =   -1955.25107587 Ry

     total all-electron energy =    -23536.715582 Ry
     estimated scf accuracy    <       0.00002813 Ry
     smearing contrib. (-TS)   =      -0.00210254 Ry
     internal energy E=F+TS    =   -1955.24897333 Ry

     The total energy is F=E-TS. E is the sum of the following terms:
     one-electron contribution =    -671.42592507 Ry
     hartree contribution      =     383.72552818 Ry
     xc contribution           =    -133.42918792 Ry
     ewald contribution        =     146.16334428 Ry
     one-center paw contrib.   =   -1680.28273280 Ry

     convergence has been achieved in  10 iterations

     negative rho (up, down):  1.872E-04 0.000E+00

     Forces acting on atoms (cartesian axes, Ry/au):

     atom    1 type  1   force =     0.00198892    0.00114830    0.00238256
     atom    2 type  1   force =    -0.00189755   -0.00208556    0.00407598
     atom    3 type  1   force =     0.00189755   -0.00208556    0.00407598
     atom    4 type  1   force =    -0.00198892    0.00114830    0.00238256
     atom    5 type  1   force =    -0.00275492   -0.00060054    0.00407598
     atom    6 type  1   force =     0.00000000    0.00000000    0.00275920
     atom    7 type  1   force =     0.00275492   -0.00060054    0.00407598
     atom    8 type  1   force =     0.00000000   -0.00297934    0.00572984
     atom    9 type  1   force =    -0.00085738    0.00268611    0.00407598
     atom   10 type  1   force =     0.00085738    0.00268611    0.00407598
     atom   11 type  1   force =    -0.00283202   -0.00163507    0.00391611
     atom   12 type  1   force =     0.00283202   -0.00163507    0.00391611
     atom   13 type  1   force =     0.00000000   -0.00229661    0.00238256
     atom   14 type  1   force =    -0.00258019    0.00148967    0.00572984
     atom   15 type  1   force =     0.00000000    0.00327014    0.00391611
     atom   16 type  1   force =     0.00258019    0.00148967    0.00572984
     atom   17 type  1   force =     0.00000000    0.00063028   -0.00110522
     atom   18 type  1   force =    -0.00236984   -0.00136823   -0.00087959
     atom   19 type  1   force =     0.00000000   -0.00093971    0.00205742
     atom   20 type  1   force =     0.00236984   -0.00136823   -0.00087959
     atom   21 type  1   force =    -0.00055237   -0.00205042   -0.00039801
     atom   22 type  1   force =    -0.00081382    0.00046986    0.00205742
     atom   23 type  1   force =     0.00081382    0.00046986    0.00205742
     atom   24 type  1   force =     0.00055237   -0.00205042   -0.00039801
     atom   25 type  1   force =     0.00149953    0.00150358   -0.00039801
     atom   26 type  1   force =     0.00000000    0.00273646   -0.00087959
     atom   27 type  1   force =    -0.00149953    0.00150358   -0.00039801
     atom   28 type  1   force =     0.00000000    0.00000000    0.00350927
     atom   29 type  1   force =    -0.00054584   -0.00031514   -0.00110522
     atom   30 type  1   force =     0.00054584   -0.00031514   -0.00110522
     atom   31 type  1   force =    -0.00205190    0.00054685   -0.00039801
     atom   32 type  1   force =     0.00205190    0.00054685   -0.00039801
     atom   33 type  1   force =     0.00000000    0.00000000    0.00543792
     atom   34 type  1   force =     0.00008768    0.00040885   -0.00539894
     atom   35 type  1   force =     0.00000000    0.00050373   -0.00334137
     atom   36 type  1   force =    -0.00008768    0.00040885   -0.00539894
     atom   37 type  1   force =     0.00039792   -0.00012849   -0.00539894
     atom   38 type  1   force =    -0.00159880   -0.00092307   -0.00381403
     atom   39 type  1   force =     0.00159880   -0.00092307   -0.00381403
     atom   40 type  1   force =    -0.00039792   -0.00012849   -0.00539894
     atom   41 type  1   force =     0.00043624   -0.00025187   -0.00334137
     atom   42 type  1   force =     0.00000000    0.00184614   -0.00381403
     atom   43 type  1   force =    -0.00043624   -0.00025187   -0.00334137
     atom   44 type  1   force =     0.00000000   -0.00094933   -0.00528168
     atom   45 type  1   force =     0.00031023   -0.00028036   -0.00539894
     atom   46 type  1   force =    -0.00031023   -0.00028036   -0.00539894
     atom   47 type  1   force =    -0.00082214    0.00047466   -0.00528168
     atom   48 type  1   force =     0.00082214    0.00047466   -0.00528168
     atom   49 type  2   force =     0.00000000    0.00000000   -0.10768166
     atom   50 type  3   force =     0.00000000    0.00000000    0.10730895

     Total force =     0.153544     Total SCF correction =     0.006633
     Energy error            =      1.5E-02
     Gradient error          =      1.1E-01

     number of scf cycles    =   3
     number of bfgs steps    =   1

     energy   old            =   -1955.2365602989 Ry
     energy   new            =   -1955.2510758745 Ry

     CASE: energy  _new < energy  _old

     new trust radius        =       0.0252311009 bohr
     new conv_thr            =       0.0000010768 Ry


ATOMIC_POSITIONS (angstrom)
Al            1.4318912319        0.8267027882        0.0000000000    0   0   0
Al            4.2956736957        0.8267027882        0.0000000000    0   0   0
Al            7.1594561595        0.8267027882        0.0000000000    0   0   0
Al           10.0232386233        0.8267027882        0.0000000000    0   0   0
Al            2.8637824638        3.3068111528        0.0000000000    0   0   0
Al            5.7275649276        3.3068111528        0.0000000000    0   0   0
Al            8.5913473914        3.3068111528        0.0000000000    0   0   0
Al           11.4551298552        3.3068111528        0.0000000000    0   0   0
Al            4.2956736957        5.7869195173        0.0000000000    0   0   0
Al            7.1594561595        5.7869195173        0.0000000000    0   0   0
Al           10.0232386233        5.7869195173        0.0000000000    0   0   0
Al           12.8870210871        5.7869195173        0.0000000000    0   0   0
Al            5.7275649276        8.2670278819        0.0000000000    0   0   0
Al            8.5913473914        8.2670278819        0.0000000000    0   0   0
Al           11.4551298552        8.2670278819        0.0000000000    0   0   0
Al           14.3189123190        8.2670278819        0.0000000000    0   0   0
Al            0.0000000000        1.6538045007        2.3373742962
Al            2.8622876647        1.6525425537        2.3376712365
Al            5.7275649276        1.6528869963        2.3397359120
Al            8.5928421905        1.6525425537        2.3376712365
Al            1.4315500172        4.1321539321        2.3381424562
Al            4.2952245922        4.1337732310        2.3397359120
Al            7.1599052630        4.1337732310        2.3397359120
Al           10.0235798380        4.1321539321        2.3381424562
Al            2.8647896587        6.6145978105        2.3381424562
Al            5.7275649276        6.6153483509        2.3376712365
Al            8.5903401966        6.6145978105        2.3381424562
Al           11.4551298552        6.6136223055        2.3405998628
Al            4.2953282171        9.0935312079        2.3373742962
Al            7.1598016381        9.0935312079        2.3373742962
Al           10.0218902138        9.0941151739        2.3381424562
Al           12.8883694967        9.0941151739        2.3381424562
Al            0.0000000000        0.0000000000        4.6809893835
Al            2.8639673386        0.0003979199        4.6728076706
Al            5.7275649276        0.0004029164        4.6743036924
Al            8.5911625167        0.0003979199        4.6728076706
Al            1.4323282781        2.4800695108        4.6728076706
Al            4.2947142502        2.4795544284        4.6739700308
Al            7.1604156050        2.4795544284        4.6739700308
Al           10.0228015772        2.4800695108        4.6728076706
Al            2.8641313997        4.9600152709        4.6743036924
Al            5.7275649276        4.9613246014        4.6739700308
Al            8.5909984556        4.9600152709        4.6743036924
Al           11.4551298552        4.9597314041        4.6730376592
Al            4.2959258671        7.4399660275        4.6728076706
Al            7.1592039881        7.4399660275        4.6728076706
Al           10.0228183196        7.4405677562        4.6730376592
Al           12.8874413909        7.4405677562        4.6730376592
O             0.0000000000        0.0000000000        7.8590136369
C             0.0000000000        0.0000000000        6.6839900253



     Writing output data file ./output/pwscf.save/
     NEW-OLD atomic charge density approx. for the potential

     Check: negative core charge=   -0.000001

     negative rho (up, down):  1.962E-04 0.000E+00

     total cpu time spent up to now is     1899.3 secs

     Self-consistent Calculation

     iteration #  1     ecut=    30.00 Ry     beta= 0.70
     Davidson diagonalization with overlap
     c_bands:  1 eigenvalues not converged
     ethr =  1.00E-06,  avg # of iterations = 11.7

     negative rho (up, down):  1.947E-04 0.000E+00

     total cpu time spent up to now is     1956.4 secs

     total energy              =   -1955.25249352 Ry
     estimated scf accuracy    <       0.00387107 Ry

     iteration #  2     ecut=    30.00 Ry     beta= 0.70
     Davidson diagonalization with overlap
     c_bands:  1 eigenvalues not converged
     ethr =  2.51E-06,  avg # of iterations = 14.0

     negative rho (up, down):  2.189E-04 0.000E+00

     total cpu time spent up to now is     2018.7 secs

     total energy              =   -1955.24560074 Ry
     estimated scf accuracy    <       0.09835678 Ry

     iteration #  3     ecut=    30.00 Ry     beta= 0.70
     Davidson diagonalization with overlap
     c_bands:  1 eigenvalues not converged
     ethr =  2.51E-06,  avg # of iterations = 12.3

     negative rho (up, down):  2.087E-04 0.000E+00

     total cpu time spent up to now is     2079.6 secs

     total energy              =   -1955.25396642 Ry
     estimated scf accuracy    <       0.00803140 Ry

     iteration #  4     ecut=    30.00 Ry     beta= 0.70
     Davidson diagonalization with overlap
     ethr =  2.51E-06,  avg # of iterations = 10.7

     negative rho (up, down):  1.988E-04 0.000E+00

     total cpu time spent up to now is     2121.5 secs

     total energy              =   -1955.25467600 Ry
     estimated scf accuracy    <       0.00230680 Ry

     iteration #  5     ecut=    30.00 Ry     beta= 0.70
     Davidson diagonalization with overlap
     ethr =  1.50E-06,  avg # of iterations =  2.0

     negative rho (up, down):  1.944E-04 0.000E+00

     total cpu time spent up to now is     2160.7 secs

     total energy              =   -1955.25486079 Ry
     estimated scf accuracy    <       0.00045317 Ry

     iteration #  6     ecut=    30.00 Ry     beta= 0.70
     Davidson diagonalization with overlap
     ethr =  2.94E-07,  avg # of iterations =  2.7

     negative rho (up, down):  1.940E-04 0.000E+00

     total cpu time spent up to now is     2203.8 secs

     total energy              =   -1955.25492745 Ry
     estimated scf accuracy    <       0.00007563 Ry

     iteration #  7     ecut=    30.00 Ry     beta= 0.70
     Davidson diagonalization with overlap
     ethr =  4.91E-08,  avg # of iterations =  6.3

     negative rho (up, down):  1.943E-04 0.000E+00

     total cpu time spent up to now is     2252.5 secs

     total energy              =   -1955.25494621 Ry
     estimated scf accuracy    <       0.00000859 Ry

     iteration #  8     ecut=    30.00 Ry     beta= 0.70
     Davidson diagonalization with overlap
     ethr =  5.58E-09,  avg # of iterations =  5.0

     negative rho (up, down):  1.946E-04 0.000E+00

     total cpu time spent up to now is     2302.6 secs

     total energy              =   -1955.25494942 Ry
     estimated scf accuracy    <       0.00000593 Ry

     iteration #  9     ecut=    30.00 Ry     beta= 0.70
     Davidson diagonalization with overlap
     ethr =  3.85E-09,  avg # of iterations =  3.0

     negative rho (up, down):  1.947E-04 0.000E+00

     total cpu time spent up to now is     2342.3 secs

     total energy              =   -1955.25495020 Ry
     estimated scf accuracy    <       0.00000171 Ry

     iteration # 10     ecut=    30.00 Ry     beta= 0.70
     Davidson diagonalization with overlap
     ethr =  1.11E-09,  avg # of iterations =  3.7

     negative rho (up, down):  1.947E-04 0.000E+00

     total cpu time spent up to now is     2382.5 secs

     End of self-consistent calculation

          k = 0.0000 0.0000 0.0000 ( 31291 PWs)   bands (ev):

   -22.5338  -8.6718  -8.3854  -7.1233  -7.1109  -7.1109  -7.1024  -7.1024
    -7.1010  -6.9469  -5.9551  -5.5138  -5.5138  -5.4730  -5.4608  -5.4608
    -5.2142  -5.2142  -4.9472  -4.2429  -4.1694  -4.1694  -4.1677  -4.1662
    -4.1662  -4.0678  -2.8702  -2.8595  -2.8595  -2.8521  -2.8521  -2.7472
    -2.7455  -2.7455  -2.7174  -2.7170  -2.7170  -2.6394  -2.5605  -2.5605
    -2.5497  -2.5497  -2.5493  -2.2177  -1.3821  -1.3821  -1.3623  -1.1213
    -0.8540  -0.8540  -0.7890  -0.1230  -0.1230  -0.0688  -0.0688  -0.0656
    -0.0159   0.1802   0.1802   0.1896   0.1990   0.1990   0.6992   1.3794
     1.3794   1.4341   1.4341   1.4411   1.4411   1.4465   1.4465   1.5179
     1.5887   1.5887   1.6735   1.6826   1.6826   1.6975   1.7027   1.7027
     1.8130   2.3448   2.6380   2.6380   2.8298   2.8299   2.8303   2.8807
     2.9268   2.9268   3.1632   3.1635

          k = 0.0000 0.3849 0.0000 ( 31213 PWs)   bands (ev):

   -22.5335  -8.5693  -8.3352  -7.9156  -7.4369  -7.4294  -6.7939  -6.4727
    -6.4487  -6.3334  -6.0034  -5.9201  -5.8006  -5.5244  -5.4713  -5.3411
    -5.2624  -5.2358  -4.7932  -4.7003  -4.4832  -4.2910  -4.0759  -4.0084
    -3.9902  -3.8306  -3.7890  -3.5770  -3.5275  -3.4993  -3.1784  -3.0113
    -2.8355  -2.5655  -2.5637  -2.4011  -2.3720  -2.2140  -2.1065  -1.9409
    -1.9046  -1.6879  -1.6336  -1.6260  -1.2672  -1.2209  -1.0165  -0.9953
    -0.9304  -0.8091  -0.6915  -0.6868  -0.5059  -0.3600  -0.3426  -0.1541
    -0.1267  -0.0459  -0.0417   0.0801   0.2916   0.3690   0.7804   0.7903
     0.8145   0.8471   0.8756   0.9728   1.0721   1.0739   1.1028   1.2344
     1.4976   1.5273   1.6351   1.6746   1.7959   1.8194   1.9071   2.2875
     2.2929   2.4741   2.5033   2.5223   2.7442   2.8032   2.8748   2.9782
     2.9851   3.0614   3.0679   3.1540

          k = 0.3333-0.5774 0.0000 ( 31275 PWs)   bands (ev):

   -22.5337  -8.5204  -8.1070  -8.1068  -8.0078  -6.6454  -6.6167  -6.6151
    -6.5215  -6.4524  -6.4515  -5.6249  -5.3239  -5.3235  -5.1493  -5.1467
    -5.1457  -5.1122  -5.1117  -5.0951  -4.9456  -4.9450  -4.7366  -3.8383
    -3.8370  -3.6647  -3.5182  -3.5177  -3.5153  -3.5067  -3.5055  -3.2182
    -2.3769  -2.3764  -2.2787  -2.2765  -2.2671  -2.2441  -2.2368  -2.2302
    -2.1402  -1.0054  -1.0050  -0.9772  -0.9772  -0.9750  -0.9169  -0.9165
    -0.9155  -0.8826  -0.8563  -0.8534  -0.7968  -0.7425  -0.7424  -0.4637
    -0.3802  -0.3729  -0.2037   0.2479   0.6109   0.6203   0.6438   0.6448
     0.6459   0.6482   0.6524   0.6551   0.8789   0.9891   1.0463   1.7588
     1.8233   1.8615   1.8939   1.9585   2.0122   2.0349   2.0387   2.0604
     2.0661   2.0674   2.2326   2.2446   2.2760   2.3155   2.3167   2.3174
     2.4535   2.7159   2.7161   3.0944

     the Fermi energy is     1.8398 ev

!    total energy              =   -1955.25495017 Ry

     total all-electron energy =    -23536.719456 Ry
     estimated scf accuracy    <       0.00000044 Ry
     smearing contrib. (-TS)   =      -0.00210437 Ry
     internal energy E=F+TS    =   -1955.25284580 Ry

     The total energy is F=E-TS. E is the sum of the following terms:
     one-electron contribution =    -672.73956100 Ry
     hartree contribution      =     384.36310306 Ry
     xc contribution           =    -133.47178424 Ry
     ewald contribution        =     146.87984748 Ry
     one-center paw contrib.   =   -1680.28445111 Ry

     convergence has been achieved in  10 iterations

     negative rho (up, down):  1.947E-04 0.000E+00

     Forces acting on atoms (cartesian axes, Ry/au):

     atom    1 type  1   force =     0.00181943    0.00105045    0.00237136
     atom    2 type  1   force =    -0.00178865   -0.00201942    0.00406501
     atom    3 type  1   force =     0.00178865   -0.00201942    0.00406501
     atom    4 type  1   force =    -0.00181943    0.00105045    0.00237136
     atom    5 type  1   force =    -0.00264320   -0.00053930    0.00406501
     atom    6 type  1   force =     0.00000000    0.00000000    0.00294792
     atom    7 type  1   force =     0.00264320   -0.00053930    0.00406501
     atom    8 type  1   force =     0.00000000   -0.00299531    0.00564625
     atom    9 type  1   force =    -0.00085455    0.00255873    0.00406501
     atom   10 type  1   force =     0.00085455    0.00255873    0.00406501
     atom   11 type  1   force =    -0.00273039   -0.00157639    0.00399384
     atom   12 type  1   force =     0.00273039   -0.00157639    0.00399384
     atom   13 type  1   force =     0.00000000   -0.00210090    0.00237136
     atom   14 type  1   force =    -0.00259401    0.00149765    0.00564625
     atom   15 type  1   force =     0.00000000    0.00315278    0.00399384
     atom   16 type  1   force =     0.00259401    0.00149765    0.00564625
     atom   17 type  1   force =     0.00000000    0.00023495   -0.00118821
     atom   18 type  1   force =    -0.00214612   -0.00123906   -0.00106192
     atom   19 type  1   force =     0.00000000   -0.00070717    0.00178271
     atom   20 type  1   force =     0.00214612   -0.00123906   -0.00106192
     atom   21 type  1   force =    -0.00041324   -0.00186513   -0.00050193
     atom   22 type  1   force =    -0.00061243    0.00035359    0.00178271
     atom   23 type  1   force =     0.00061243    0.00035359    0.00178271
     atom   24 type  1   force =     0.00041324   -0.00186513   -0.00050193
     atom   25 type  1   force =     0.00140863    0.00129044   -0.00050193
     atom   26 type  1   force =     0.00000000    0.00247812   -0.00106192
     atom   27 type  1   force =    -0.00140863    0.00129044   -0.00050193
     atom   28 type  1   force =     0.00000000    0.00000000    0.00291019
     atom   29 type  1   force =    -0.00020347   -0.00011748   -0.00118821
     atom   30 type  1   force =     0.00020347   -0.00011748   -0.00118821
     atom   31 type  1   force =    -0.00182187    0.00057469   -0.00050193
     atom   32 type  1   force =     0.00182187    0.00057469   -0.00050193
     atom   33 type  1   force =     0.00000000    0.00000000    0.00530097
     atom   34 type  1   force =     0.00009790    0.00046542   -0.00525556
     atom   35 type  1   force =     0.00000000    0.00052034   -0.00313577
     atom   36 type  1   force =    -0.00009790    0.00046542   -0.00525556
     atom   37 type  1   force =     0.00045201   -0.00014793   -0.00525556
     atom   38 type  1   force =    -0.00139499   -0.00080540   -0.00360749
     atom   39 type  1   force =     0.00139499   -0.00080540   -0.00360749
     atom   40 type  1   force =    -0.00045201   -0.00014793   -0.00525556
     atom   41 type  1   force =     0.00045063   -0.00026017   -0.00313577
     atom   42 type  1   force =     0.00000000    0.00161080   -0.00360749
     atom   43 type  1   force =    -0.00045063   -0.00026017   -0.00313577
     atom   44 type  1   force =     0.00000000   -0.00081203   -0.00489793
     atom   45 type  1   force =     0.00035411   -0.00031749   -0.00525556
     atom   46 type  1   force =    -0.00035411   -0.00031749   -0.00525556
     atom   47 type  1   force =    -0.00070324    0.00040601   -0.00489793
     atom   48 type  1   force =     0.00070324    0.00040601   -0.00489793
     atom   49 type  2   force =     0.00000000    0.00000000   -0.02751735
     atom   50 type  3   force =     0.00000000    0.00000000    0.02680461

     Total force =     0.043487     Total SCF correction =     0.000650
     Energy error            =      3.9E-03
     Gradient error          =      2.8E-02

     number of scf cycles    =   4
     number of bfgs steps    =   2

     energy   old            =   -1955.2510758745 Ry
     energy   new            =   -1955.2549501671 Ry

     CASE: energy  _new < energy  _old

     new trust radius        =       0.0113809958 bohr
     new conv_thr            =       0.0000010000 Ry


ATOMIC_POSITIONS (angstrom)
Al            1.4318912319        0.8267027882        0.0000000000    0   0   0
Al            4.2956736957        0.8267027882        0.0000000000    0   0   0
Al            7.1594561595        0.8267027882        0.0000000000    0   0   0
Al           10.0232386233        0.8267027882        0.0000000000    0   0   0
Al            2.8637824638        3.3068111528        0.0000000000    0   0   0
Al            5.7275649276        3.3068111528        0.0000000000    0   0   0
Al            8.5913473914        3.3068111528        0.0000000000    0   0   0
Al           11.4551298552        3.3068111528        0.0000000000    0   0   0
Al            4.2956736957        5.7869195173        0.0000000000    0   0   0
Al            7.1594561595        5.7869195173        0.0000000000    0   0   0
Al           10.0232386233        5.7869195173        0.0000000000    0   0   0
Al           12.8870210871        5.7869195173        0.0000000000    0   0   0
Al            5.7275649276        8.2670278819        0.0000000000    0   0   0
Al            8.5913473914        8.2670278819        0.0000000000    0   0   0
Al           11.4551298552        8.2670278819        0.0000000000    0   0   0
Al           14.3189123190        8.2670278819        0.0000000000    0   0   0
Al            0.0000000000        1.6539958783        2.3364159187
Al            2.8606071965        1.6515723350        2.3368385009
Al            5.7275649276        1.6523422115        2.3411610506
Al            8.5945226587        1.6515723350        2.3368385009
Al            1.4312257463        4.1306828423        2.3377727232
Al            4.2947527947        4.1340456234        2.3411610506
Al            7.1603770605        4.1340456234        2.3411610506
Al           10.0239041089        4.1306828423        2.3377727232
Al            2.8659015243        6.6156141823        2.3377727232
Al            5.7275649276        6.6172887884        2.3368385009
Al            8.5892283309        6.6156141823        2.3377727232
Al           11.4551298552        6.6136223055        2.3429034468
Al            4.2951624793        9.0934355191        2.3364159187
Al            7.1599673759        9.0934355191        2.3364159187
Al           10.0204540772        9.0945698920        2.3377727232
Al           12.8898056333        9.0945698920        2.3377727232
Al            0.0000000000        0.0000000000        4.6852979417
Al            2.8640646155        0.0007830322        4.6686476942
Al            5.7275649276        0.0008228052        4.6718302256
Al            8.5910652398        0.0007830322        4.6686476942
Al            1.4327104335        2.4799611990        4.6686476942
Al            4.2936287530        2.4789277164        4.6711223656
Al            7.1615011022        2.4789277164        4.6711223656
Al           10.0224194217        2.4799611990        4.6686476942
Al            2.8644950340        4.9598053265        4.6718302256
Al            5.7275649276        4.9625780256        4.6711223656
Al            8.5906348212        4.9598053265        4.6718302256
Al           11.4551298552        4.9591129506        4.6691776479
Al            4.2962107457        7.4396892271        4.6686476942
Al            7.1589191095        7.4396892271        4.6686476942
Al           10.0222827230        7.4408769830        4.6691776479
Al           12.8879769874        7.4408769830        4.6691776479
O             0.0000000000        0.0000000000        7.8529910732
C             0.0000000000        0.0000000000        6.6893390372



     Writing output data file ./output/pwscf.save/
     NEW-OLD atomic charge density approx. for the potential

     Check: negative core charge=   -0.000001

     negative rho (up, down):  2.064E-04 0.000E+00

     total cpu time spent up to now is     2416.9 secs

     Self-consistent Calculation

     iteration #  1     ecut=    30.00 Ry     beta= 0.70
     Davidson diagonalization with overlap
     ethr =  1.00E-06,  avg # of iterations =  4.3

     negative rho (up, down):  2.010E-04 0.000E+00

     total cpu time spent up to now is     2465.5 secs

     total energy              =   -1955.25560582 Ry
     estimated scf accuracy    <       0.00022568 Ry

     iteration #  2     ecut=    30.00 Ry     beta= 0.70
     Davidson diagonalization with overlap
     ethr =  1.47E-07,  avg # of iterations =  6.0

     negative rho (up, down):  2.037E-04 0.000E+00

     total cpu time spent up to now is     2514.1 secs

     total energy              =   -1955.25544771 Ry
     estimated scf accuracy    <       0.00164107 Ry

     iteration #  3     ecut=    30.00 Ry     beta= 0.70
     Davidson diagonalization with overlap
     ethr =  1.47E-07,  avg # of iterations =  7.0

     negative rho (up, down):  2.003E-04 0.000E+00

     total cpu time spent up to now is     2565.6 secs

     total energy              =   -1955.25566792 Ry
     estimated scf accuracy    <       0.00023348 Ry

     iteration #  4     ecut=    30.00 Ry     beta= 0.70
     Davidson diagonalization with overlap
     ethr =  1.47E-07,  avg # of iterations =  3.0

     negative rho (up, down):  1.994E-04 0.000E+00

     total cpu time spent up to now is     2609.3 secs

     total energy              =   -1955.25566273 Ry
     estimated scf accuracy    <       0.00039880 Ry

     iteration #  5     ecut=    30.00 Ry     beta= 0.70
     Davidson diagonalization with overlap
     ethr =  1.47E-07,  avg # of iterations =  2.0

     negative rho (up, down):  1.990E-04 0.000E+00

     total cpu time spent up to now is     2649.6 secs

     total energy              =   -1955.25568847 Ry
     estimated scf accuracy    <       0.00013720 Ry

     iteration #  6     ecut=    30.00 Ry     beta= 0.70
     Davidson diagonalization with overlap
     ethr =  8.91E-08,  avg # of iterations =  2.0

     negative rho (up, down):  1.989E-04 0.000E+00

     total cpu time spent up to now is     2688.8 secs

     total energy              =   -1955.25570207 Ry
     estimated scf accuracy    <       0.00000620 Ry

     iteration #  7     ecut=    30.00 Ry     beta= 0.70
     Davidson diagonalization with overlap
     ethr =  4.02E-09,  avg # of iterations =  8.3

     negative rho (up, down):  1.990E-04 0.000E+00

     total cpu time spent up to now is     2745.5 secs

     total energy              =   -1955.25570573 Ry
     estimated scf accuracy    <       0.00000571 Ry

     iteration #  8     ecut=    30.00 Ry     beta= 0.70
     Davidson diagonalization with overlap
     ethr =  3.71E-09,  avg # of iterations =  2.0

     negative rho (up, down):  1.990E-04 0.000E+00

     total cpu time spent up to now is     2785.7 secs

     total energy              =   -1955.25570623 Ry
     estimated scf accuracy    <       0.00000104 Ry

     iteration #  9     ecut=    30.00 Ry     beta= 0.70
     Davidson diagonalization with overlap
     ethr =  6.74E-10,  avg # of iterations =  4.0

     negative rho (up, down):  1.988E-04 0.000E+00

     total cpu time spent up to now is     2828.4 secs

     End of self-consistent calculation

          k = 0.0000 0.0000 0.0000 ( 31291 PWs)   bands (ev):

   -22.7677  -8.6746  -8.4032  -7.1189  -7.1092  -7.1092  -7.1050  -7.1045
    -7.1045  -6.9491  -5.9909  -5.5583  -5.5583  -5.4682  -5.4580  -5.4580
    -5.3253  -5.3253  -4.9619  -4.2375  -4.1699  -4.1689  -4.1689  -4.1647
    -4.1647  -4.0665  -2.8607  -2.8525  -2.8525  -2.8487  -2.8487  -2.7450
    -2.7450  -2.7430  -2.7170  -2.7156  -2.7156  -2.6341  -2.5577  -2.5577
    -2.5481  -2.5476  -2.5476  -2.2198  -1.3793  -1.3793  -1.3605  -1.1160
    -0.8515  -0.8515  -0.7855  -0.1172  -0.1172  -0.0633  -0.0633  -0.0613
    -0.0084   0.1835   0.1835   0.1973   0.2047   0.2047   0.7014   1.3853
     1.3853   1.4362   1.4362   1.4422   1.4422   1.4450   1.4516   1.5235
     1.5948   1.5948   1.6782   1.6850   1.6850   1.6978   1.7047   1.7047
     1.8159   2.3518   2.6485   2.6485   2.8324   2.8329   2.8329   2.8835
     2.9331   2.9331   3.1671   3.1672

          k = 0.0000 0.3849 0.0000 ( 31213 PWs)   bands (ev):

   -22.7673  -8.5790  -8.3446  -7.9166  -7.4371  -7.4296  -6.7982  -6.4750
    -6.4491  -6.3387  -6.0123  -5.9243  -5.8038  -5.5327  -5.4821  -5.4457
    -5.3997  -5.2956  -4.7948  -4.7017  -4.4826  -4.2891  -4.0721  -4.0077
    -3.9889  -3.8291  -3.7848  -3.5727  -3.5267  -3.4977  -3.1732  -3.0076
    -2.8337  -2.5657  -2.5612  -2.3987  -2.3687  -2.2084  -2.1017  -1.9383
    -1.9016  -1.6832  -1.6326  -1.6246  -1.2615  -1.2151  -1.0116  -0.9935
    -0.9265  -0.8071  -0.6888  -0.6871  -0.5011  -0.3582  -0.3401  -0.1489
    -0.1229  -0.0416  -0.0384   0.0835   0.2964   0.3741   0.7858   0.7959
     0.8198   0.8518   0.8778   0.9777   1.0750   1.0750   1.1056   1.2384
     1.5009   1.5299   1.6392   1.6799   1.8009   1.8223   1.9109   2.2890
     2.2954   2.4814   2.5123   2.5309   2.7499   2.8128   2.8814   2.9833
     2.9891   3.0642   3.0690   3.1588

          k = 0.3333-0.5774 0.0000 ( 31275 PWs)   bands (ev):

   -22.7675  -8.5366  -8.1051  -8.1047  -8.0162  -6.6531  -6.6166  -6.6152
    -6.5305  -6.4496  -6.4484  -5.6586  -5.4596  -5.4595  -5.1490  -5.1449
    -5.1439  -5.1231  -5.1222  -5.0942  -4.9531  -4.9516  -4.7411  -3.8311
    -3.8303  -3.6604  -3.5156  -3.5151  -3.5115  -3.5051  -3.5046  -3.2202
    -2.3714  -2.3705  -2.2770  -2.2753  -2.2659  -2.2420  -2.2361  -2.2290
    -2.1376  -1.0007  -1.0006  -0.9710  -0.9702  -0.9680  -0.9136  -0.9136
    -0.9127  -0.8796  -0.8547  -0.8514  -0.7958  -0.7366  -0.7365  -0.4578
    -0.3774  -0.3696  -0.2054   0.2500   0.6129   0.6215   0.6455   0.6465
     0.6498   0.6503   0.6567   0.6573   0.8834   0.9933   1.0477   1.7657
     1.8306   1.8681   1.9005   1.9662   2.0177   2.0396   2.0445   2.0644
     2.0716   2.0717   2.2372   2.2483   2.2807   2.3184   2.3207   2.3209
     2.4563   2.7237   2.7243   3.0975

     the Fermi energy is     1.8444 ev

!    total energy              =   -1955.25570613 Ry

     total all-electron energy =    -23536.720212 Ry
     estimated scf accuracy    <       0.00000029 Ry
     smearing contrib. (-TS)   =      -0.00206974 Ry
     internal energy E=F+TS    =   -1955.25363639 Ry

[...]
Al            4.2956736957        5.7869195173        0.0000000000    0   0   0
Al            7.1594561595        5.7869195173        0.0000000000    0   0   0
Al           10.0232386233        5.7869195173        0.0000000000    0   0   0
Al           12.8870210871        5.7869195173        0.0000000000    0   0   0
Al            5.7275649276        8.2670278819        0.0000000000    0   0   0
Al            8.5913473914        8.2670278819        0.0000000000    0   0   0
Al           11.4551298552        8.2670278819        0.0000000000    0   0   0
Al           14.3189123190        8.2670278819        0.0000000000    0   0   0
Al            0.0000000000        1.6418690781        2.3041610595
Al            2.8466423767        1.6435097425        2.2923188416
Al            5.7275649276        1.6511688651        2.3247411625
Al            8.6084874785        1.6435097425        2.2923188416
Al            1.4296382203        4.1234371168        2.3005796115
Al            4.2937366469        4.1346322966        2.3247411625
Al            7.1613932083        4.1346322966        2.3247411625
Al           10.0254916349        4.1234371168        2.3005796115
Al            2.8713827437        6.6206118829        2.3005796115
Al            5.7275649276        6.6334139733        2.2923188416
Al            8.5837471115        6.6206118829        2.3005796115
Al           11.4551298552        6.6136223055        2.3229449160
Al            4.3056645963        9.0994989192        2.3041610595
Al            7.1494652589        9.0994989192        2.3041610595
Al           10.0133853318        9.0968179169        2.3005796115
Al           12.8968743786        9.0968179169        2.3005796115
Al            0.0000000000        0.0000000000        4.6960167203
Al            2.8558213010        0.0007018765        4.5946393444
Al            5.7275649276       -0.0017453593        4.6193562454
Al            8.5993085543        0.0007018765        4.5946393444
Al            1.4285184933        2.4728628571        4.5946393444
Al            4.2805374415        2.4713694441        4.6169173511
Al            7.1745924138        2.4713694441        4.6169173511
Al           10.0266113619        2.4728628571        4.5946393444
Al            2.8622709383        4.9610894088        4.6193562454
Al            5.7275649276        4.9776945701        4.6169173511
Al            8.5928589169        4.9610894088        4.6193562454
Al           11.4551298552        4.9493081928        4.6005870933
Al            4.3002621200        7.4468687247        4.5946393444
Al            7.1548677352        7.4468687247        4.5946393444
Al           10.0137915537        7.4457793619        4.6005870933
Al           12.8964681567        7.4457793619        4.6005870933
O             0.0000000000        0.0000000000        7.8744382307
C             0.0000000000        0.0000000000        6.7076491898



     Writing output data file ./output/pwscf.save/
     NEW-OLD atomic charge density approx. for the potential

     Check: negative core charge=   -0.000001

     negative rho (up, down):  2.115E-04 0.000E+00

     total cpu time spent up to now is     6820.6 secs

     Self-consistent Calculation

     iteration #  1     ecut=    30.00 Ry     beta= 0.70
     Davidson diagonalization with overlap
     ethr =  1.00E-06,  avg # of iterations =  2.0

     Threshold (ethr) on eigenvalues was too large:
     Diagonalizing with lowered threshold

     Davidson diagonalization with overlap
     ethr =  3.12E-08,  avg # of iterations =  5.7

     negative rho (up, down):  2.102E-04 0.000E+00

     total cpu time spent up to now is     6909.4 secs

     total energy              =   -1955.26035871 Ry
     estimated scf accuracy    <       0.00017694 Ry

     iteration #  2     ecut=    30.00 Ry     beta= 0.70
     Davidson diagonalization with overlap
     ethr =  1.15E-07,  avg # of iterations =  8.0

     negative rho (up, down):  2.121E-04 0.000E+00

     total cpu time spent up to now is     6966.5 secs

     total energy              =   -1955.25946668 Ry
     estimated scf accuracy    <       0.01831628 Ry

     iteration #  3     ecut=    30.00 Ry     beta= 0.70
     Davidson diagonalization with overlap
     ethr =  1.15E-07,  avg # of iterations =  8.3

     negative rho (up, down):  2.108E-04 0.000E+00

     total cpu time spent up to now is     7020.4 secs

     total energy              =   -1955.26048220 Ry
     estimated scf accuracy    <       0.00011917 Ry

     iteration #  4     ecut=    30.00 Ry     beta= 0.70
     Davidson diagonalization with overlap
     ethr =  7.74E-08,  avg # of iterations =  2.0

     negative rho (up, down):  2.100E-04 0.000E+00

     total cpu time spent up to now is     7061.5 secs

     total energy              =   -1955.26049782 Ry
     estimated scf accuracy    <       0.00000346 Ry

     iteration #  5     ecut=    30.00 Ry     beta= 0.70
     Davidson diagonalization with overlap
     ethr =  2.25E-09,  avg # of iterations =  6.7

     negative rho (up, down):  2.098E-04 0.000E+00

     total cpu time spent up to now is     7116.2 secs

     total energy              =   -1955.26049966 Ry
     estimated scf accuracy    <       0.00000468 Ry

     iteration #  6     ecut=    30.00 Ry     beta= 0.70
     Davidson diagonalization with overlap
     ethr =  2.25E-09,  avg # of iterations =  2.0

     negative rho (up, down):  2.096E-04 0.000E+00

     total cpu time spent up to now is     7157.4 secs

     total energy              =   -1955.26050000 Ry
     estimated scf accuracy    <       0.00000130 Ry

     iteration #  7     ecut=    30.00 Ry     beta= 0.70
     Davidson diagonalization with overlap
     ethr =  8.46E-10,  avg # of iterations =  3.3

     negative rho (up, down):  2.095E-04 0.000E+00

     total cpu time spent up to now is     7196.9 secs

     End of self-consistent calculation

          k = 0.0000 0.0000 0.0000 ( 31291 PWs)   bands (ev):

   -22.7686  -8.7462  -8.4471  -7.2161  -7.2161  -7.1999  -7.1947  -7.1947
    -7.1832  -6.9989  -6.0182  -5.5909  -5.5909  -5.5054  -5.5054  -5.4974
    -5.3637  -5.3637  -5.0129  -4.2776  -4.2753  -4.2753  -4.2621  -4.2462
    -4.2462  -4.0997  -2.8507  -2.8507  -2.8283  -2.8283  -2.8273  -2.8168
    -2.8127  -2.8127  -2.8060  -2.8060  -2.8003  -2.6366  -2.6128  -2.6128
    -2.6051  -2.6017  -2.6017  -2.2776  -1.4344  -1.4344  -1.4230  -1.1025
    -0.8992  -0.8992  -0.8261  -0.1079  -0.1079  -0.0479  -0.0478  -0.0478
     0.0150   0.1862   0.1862   0.2219   0.2219   0.2288   0.6854   1.3196
     1.3196   1.3456   1.3521   1.3521   1.3710   1.4279   1.4279   1.5386
     1.5819   1.5819   1.6072   1.6187   1.6187   1.6418   1.6527   1.6527
     1.8011   2.4269   2.6092   2.6092   2.7752   2.7784   2.7784   2.8338
     2.9010   2.9010   3.1616   3.1627

          k = 0.0000 0.3849 0.0000 ( 31213 PWs)   bands (ev):

   -22.7683  -8.6288  -8.4106  -8.0092  -7.5357  -7.5175  -6.8461  -6.5554
    -6.5476  -6.3853  -6.0793  -5.9819  -5.8543  -5.6069  -5.5709  -5.4607
    -5.4218  -5.3518  -4.8515  -4.7464  -4.5759  -4.3356  -4.1034  -4.1018
    -4.0334  -3.8860  -3.8127  -3.6227  -3.6184  -3.5211  -3.1445  -3.0052
    -2.8774  -2.6662  -2.6503  -2.4507  -2.4154  -2.1804  -2.0937  -1.9904
    -1.9440  -1.7282  -1.7198  -1.6629  -1.2356  -1.1985  -1.0541  -1.0440
    -0.9276  -0.8773  -0.7878  -0.7759  -0.4929  -0.4312  -0.4064  -0.1465
    -0.1264  -0.0739  -0.0727   0.0802   0.2927   0.3756   0.7881   0.7938
     0.8219   0.8360   0.8434   0.9656   0.9970   1.0105   1.0667   1.2211
     1.4562   1.4803   1.6249   1.6586   1.7727   1.7979   1.8855   2.2173
     2.2306   2.5258   2.5365   2.5565   2.7609   2.7960   2.8893   2.9578
     2.9739   2.9877   3.0199   3.1489

          k = 0.3333-0.5774 0.0000 ( 31275 PWs)   bands (ev):

   -22.7685  -8.5662  -8.1927  -8.1849  -8.1214  -6.7225  -6.7174  -6.7084
    -6.5928  -6.4934  -6.4906  -5.6985  -5.4687  -5.4681  -5.2443  -5.2419
    -5.2319  -5.2149  -5.2147  -5.1833  -5.0103  -5.0018  -4.7930  -3.7926
    -3.7901  -3.6623  -3.5700  -3.5673  -3.5601  -3.5586  -3.5507  -3.2711
    -2.3723  -2.3677  -2.3632  -2.3487  -2.3402  -2.3268  -2.3213  -2.3172
    -2.1458  -1.0103  -1.0041  -0.9700  -0.9605  -0.9529  -0.9526  -0.9507
    -0.9412  -0.9368  -0.9335  -0.8879  -0.8677  -0.7162  -0.7151  -0.4654
    -0.4272  -0.4069  -0.2639   0.1839   0.5289   0.5324   0.5560   0.5649
     0.5762   0.5777   0.6526   0.6620   0.8809   0.9525   0.9984   1.7702
     1.8236   1.8946   1.9254   1.9910   2.0270   2.0370   2.0495   2.0561
     2.0604   2.0656   2.1988   2.2103   2.2553   2.2855   2.2873   2.2919
     2.4601   2.7895   2.7972   3.1273

     the Fermi energy is     1.8280 ev

!    total energy              =   -1955.26049962 Ry

     total all-electron energy =    -23536.725006 Ry
     estimated scf accuracy    <       0.00000056 Ry
     smearing contrib. (-TS)   =      -0.00156331 Ry
     internal energy E=F+TS    =   -1955.25893631 Ry

     The total energy is F=E-TS. E is the sum of the following terms:
     one-electron contribution =    -686.87039073 Ry
     hartree contribution      =     391.31415438 Ry
     xc contribution           =    -133.69285329 Ry
     ewald contribution        =     154.31064936 Ry
     one-center paw contrib.   =   -1680.32049603 Ry

     convergence has been achieved in   7 iterations

     negative rho (up, down):  2.095E-04 0.000E+00

     Forces acting on atoms (cartesian axes, Ry/au):

     atom    1 type  1   force =     0.00092617    0.00053473   -0.00312221
     atom    2 type  1   force =    -0.00101448   -0.00184439    0.00047180
     atom    3 type  1   force =     0.00101448   -0.00184439    0.00047180
     atom    4 type  1   force =    -0.00092617    0.00053473   -0.00312221
     atom    5 type  1   force =    -0.00210453    0.00004363    0.00047180
     atom    6 type  1   force =     0.00000000    0.00000000    0.00264785
     atom    7 type  1   force =     0.00210453    0.00004363    0.00047180
     atom    8 type  1   force =     0.00000000   -0.00401167    0.00167527
     atom    9 type  1   force =    -0.00109005    0.00180076    0.00047180
     atom   10 type  1   force =     0.00109005    0.00180076    0.00047180
     atom   11 type  1   force =    -0.00225680   -0.00130297    0.00123920
     atom   12 type  1   force =     0.00225680   -0.00130297    0.00123920
     atom   13 type  1   force =     0.00000000   -0.00106945   -0.00312221
     atom   14 type  1   force =    -0.00347421    0.00200583    0.00167527
     atom   15 type  1   force =     0.00000000    0.00260593    0.00123920
     atom   16 type  1   force =     0.00347421    0.00200583    0.00167527
     atom   17 type  1   force =     0.00000000    0.00126248   -0.00040349
     atom   18 type  1   force =     0.00075261    0.00043452    0.00076207
     atom   19 type  1   force =     0.00000000   -0.00001535   -0.00078817
     atom   20 type  1   force =    -0.00075261    0.00043452    0.00076207
     atom   21 type  1   force =    -0.00015762    0.00018787    0.00026389
     atom   22 type  1   force =    -0.00001329    0.00000767   -0.00078817
     atom   23 type  1   force =     0.00001329    0.00000767   -0.00078817
     atom   24 type  1   force =     0.00015762    0.00018787    0.00026389
     atom   25 type  1   force =    -0.00024151    0.00004256    0.00026389
     atom   26 type  1   force =     0.00000000   -0.00086904    0.00076207
     atom   27 type  1   force =     0.00024151    0.00004256    0.00026389
     atom   28 type  1   force =     0.00000000    0.00000000   -0.00098280
     atom   29 type  1   force =    -0.00109334   -0.00063124   -0.00040349
     atom   30 type  1   force =     0.00109334   -0.00063124   -0.00040349
     atom   31 type  1   force =     0.00008389   -0.00023044    0.00026389
     atom   32 type  1   force =    -0.00008389   -0.00023044    0.00026389
     atom   33 type  1   force =     0.00000000    0.00000000    0.00313741
     atom   34 type  1   force =     0.00022787    0.00010989    0.00003687
     atom   35 type  1   force =     0.00000000   -0.00006836   -0.00077342
     atom   36 type  1   force =    -0.00022787    0.00010989    0.00003687
     atom   37 type  1   force =     0.00020910    0.00014239    0.00003687
     atom   38 type  1   force =     0.00032189    0.00018584   -0.00039678
     atom   39 type  1   force =    -0.00032189    0.00018584   -0.00039678
     atom   40 type  1   force =    -0.00020910    0.00014239    0.00003687
     atom   41 type  1   force =    -0.00005921    0.00003418   -0.00077342
     atom   42 type  1   force =     0.00000000   -0.00037169   -0.00039678
     atom   43 type  1   force =     0.00005921    0.00003418   -0.00077342
     atom   44 type  1   force =     0.00000000    0.00068752   -0.00022861
     atom   45 type  1   force =    -0.00001876   -0.00025228    0.00003687
     atom   46 type  1   force =     0.00001876   -0.00025228    0.00003687
     atom   47 type  1   force =     0.00059541   -0.00034376   -0.00022861
     atom   48 type  1   force =    -0.00059541   -0.00034376   -0.00022861
     atom   49 type  2   force =     0.00000000    0.00000000   -0.00398426
     atom   50 type  3   force =     0.00000000    0.00000000    0.00065484

     Total force =     0.006610     Total SCF correction =     0.000946
     SCF correction compared to forces is large: reduce conv_thr to get better values
     Energy error            =      5.2E-05
     Gradient error          =      4.0E-03

     bfgs converged in  15 scf cycles and  13 bfgs steps
     (criteria: energy <  1.0E-04 Ry, force <  1.0E-01 Ry/Bohr)

     End of BFGS Geometry Optimization

     Final energy   =   -1955.2604996225 Ry

     File ./output/pwscf.bfgs deleted, as requested
Begin final coordinates

ATOMIC_POSITIONS (angstrom)
Al            1.4318912319        0.8267027882        0.0000000000    0   0   0
Al            4.2956736957        0.8267027882        0.0000000000    0   0   0
Al            7.1594561595        0.8267027882        0.0000000000    0   0   0
Al           10.0232386233        0.8267027882        0.0000000000    0   0   0
Al            2.8637824638        3.3068111528        0.0000000000    0   0   0
Al            5.7275649276        3.3068111528        0.0000000000    0   0   0
Al            8.5913473914        3.3068111528        0.0000000000    0   0   0
Al           11.4551298552        3.3068111528        0.0000000000    0   0   0
Al            4.2956736957        5.7869195173        0.0000000000    0   0   0
Al            7.1594561595        5.7869195173        0.0000000000    0   0   0
Al           10.0232386233        5.7869195173        0.0000000000    0   0   0
Al           12.8870210871        5.7869195173        0.0000000000    0   0   0
Al            5.7275649276        8.2670278819        0.0000000000    0   0   0
Al            8.5913473914        8.2670278819        0.0000000000    0   0   0
Al           11.4551298552        8.2670278819        0.0000000000    0   0   0
Al           14.3189123190        8.2670278819        0.0000000000    0   0   0
Al            0.0000000000        1.6418690781        2.3041610595
Al            2.8466423767        1.6435097425        2.2923188416
Al            5.7275649276        1.6511688651        2.3247411625
Al            8.6084874785        1.6435097425        2.2923188416
Al            1.4296382203        4.1234371168        2.3005796115
Al            4.2937366469        4.1346322966        2.3247411625
Al            7.1613932083        4.1346322966        2.3247411625
Al           10.0254916349        4.1234371168        2.3005796115
Al            2.8713827437        6.6206118829        2.3005796115
Al            5.7275649276        6.6334139733        2.2923188416
Al            8.5837471115        6.6206118829        2.3005796115
Al           11.4551298552        6.6136223055        2.3229449160
Al            4.3056645963        9.0994989192        2.3041610595
Al            7.1494652589        9.0994989192        2.3041610595
Al           10.0133853318        9.0968179169        2.3005796115
Al           12.8968743786        9.0968179169        2.3005796115
Al            0.0000000000        0.0000000000        4.6960167203
Al            2.8558213010        0.0007018765        4.5946393444
Al            5.7275649276       -0.0017453593        4.6193562454
Al            8.5993085543        0.0007018765        4.5946393444
Al            1.4285184933        2.4728628571        4.5946393444
Al            4.2805374415        2.4713694441        4.6169173511
Al            7.1745924138        2.4713694441        4.6169173511
Al           10.0266113619        2.4728628571        4.5946393444
Al            2.8622709383        4.9610894088        4.6193562454
Al            5.7275649276        4.9776945701        4.6169173511
Al            8.5928589169        4.9610894088        4.6193562454
Al           11.4551298552        4.9493081928        4.6005870933
Al            4.3002621200        7.4468687247        4.5946393444
Al            7.1548677352        7.4468687247        4.5946393444
Al           10.0137915537        7.4457793619        4.6005870933
Al           12.8964681567        7.4457793619        4.6005870933
O             0.0000000000        0.0000000000        7.8744382307
C             0.0000000000        0.0000000000        6.7076491898
End final coordinates



     Writing output data file ./output/pwscf.save/

     init_run     :     31.64s CPU     32.22s WALL (       1 calls)
     electrons    :   6592.33s CPU   6675.71s WALL (      15 calls)
     update_pot   :     51.36s CPU     51.57s WALL (      14 calls)
     forces       :    346.02s CPU    353.48s WALL (      15 calls)

     Called by init_run:
     wfcinit      :     24.96s CPU     25.11s WALL (       1 calls)
     potinit      :      1.92s CPU      1.99s WALL (       1 calls)
     hinit0       :      1.51s CPU      1.52s WALL (       1 calls)

     Called by electrons:
     c_bands      :   4857.53s CPU   4868.51s WALL (     141 calls)
     sum_band     :   1115.12s CPU   1155.92s WALL (     141 calls)
     v_of_rho     :     40.68s CPU     43.47s WALL (     149 calls)
     newd         :    483.16s CPU    515.67s WALL (     149 calls)
     PAW_pot      :    163.07s CPU    163.10s WALL (     163 calls)
     mix_rho      :      7.82s CPU      8.10s WALL (     141 calls)

     Called by c_bands:
     init_us_2    :     37.39s CPU     37.45s WALL (     936 calls)
     cegterg      :   4766.73s CPU   4777.65s WALL (     424 calls)

     Called by *egterg:
     cdiaghg      :     41.87s CPU     42.05s WALL (    2710 calls)
     h_psi        :   2690.26s CPU   2699.21s WALL (    2777 calls)
     s_psi        :   1183.42s CPU   1183.97s WALL (    2777 calls)
     g_psi        :      2.39s CPU      2.39s WALL (    2350 calls)

     Called by h_psi:
     h_psi:calbec :   1182.84s CPU   1183.71s WALL (    2777 calls)
     vloc_psi     :    302.10s CPU    309.74s WALL (    2777 calls)
     add_vuspsi   :   1201.22s CPU   1201.25s WALL (    2777 calls)

     General routines
     calbec       :   1802.52s CPU   1803.69s WALL (    3422 calls)
     fft          :     42.22s CPU     44.36s WALL (    2093 calls)
     ffts         :      1.24s CPU      1.28s WALL (     290 calls)
     fftw         :    305.28s CPU    312.70s WALL (  265784 calls)
     interpolate  :      4.47s CPU      4.58s WALL (     149 calls)

     Parallel routines
     fft_scatt_xy :     62.93s CPU     64.38s WALL (  268167 calls)
     fft_scatt_yz :    115.82s CPU    120.08s WALL (  268167 calls)

     PWSCF        :      1h58m CPU      2h 0m WALL


   This run was terminated on:  11:17: 3  13Jun2023            

=------------------------------------------------------------------------------=
   JOB DONE.
=------------------------------------------------------------------------------=
