   2   2   0   0
  0.1712417E+04  0.1121436E-08  0.1121436E-08  0.3144561E-08  0.5000000E-15
  1.000000000000000E-004
  CAR 
 Pt                                      
      1.94347708    -11.31746946  301    -10.23312170      1.00000000
    -11.317  0.0000E+00  0.0000E+00
    -11.273  0.0000E+00  0.0000E+00
    -11.229  0.0000E+00  0.0000E+00
    -11.185  0.0000E+00  0.0000E+00
    -11.141 -0.1904E-29 -0.8417E-31
    -11.096 -0.2146E-26 -0.9496E-28
    -11.052 -0.1632E-23 -0.7224E-25
    -11.008 -0.8365E-21 -0.3705E-22
    -10.964 -0.2887E-18 -0.1280E-19
    -10.920 -0.6708E-16 -0.2978E-17
    -10.875 -0.1015E-13 -0.4515E-15
    -10.831 -0.1059E-11 -0.4724E-13
    -10.787 -0.7390E-10 -0.3314E-11
    -10.743 -0.3443E-08 -0.1555E-09
    -10.699 -0.1065E-06 -0.4865E-08
    -10.654 -0.2175E-05 -0.1010E-06
    -10.610 -0.2895E-04 -0.1381E-05
    -10.566 -0.2463E-03 -0.1227E-04
    -10.522 -0.1282E-02 -0.6893E-04
    -10.478 -0.3627E-02 -0.2293E-03
    -10.433 -0.2680E-02 -0.3477E-03
    -10.389  0.1549E-01  0.3369E-03
    -10.345  0.5467E-01  0.2753E-02
    -10.301  0.8197E-01  0.6377E-02
    -10.257  0.6460E-01  0.9232E-02
    -10.212  0.2405E-01  0.1030E-01
    -10.168 -0.3319E-03  0.1028E-01
    -10.124 -0.4113E-02  0.1010E-01
    -10.080 -0.1781E-02  0.1002E-01
    -10.036 -0.3925E-03  0.1000E-01
     -9.991 -0.5196E-04  0.1000E-01
     -9.947 -0.4360E-05  0.1000E-01
     -9.903 -0.2376E-06  0.1000E-01
     -9.859 -0.8525E-08  0.1000E-01
     -9.815 -0.2028E-09  0.1000E-01
     -9.770 -0.3217E-11  0.1000E-01
     -9.726 -0.3412E-13  0.1000E-01
     -9.682 -0.2512E-15  0.1000E-01
     -9.638  0.0000E+00  0.1000E-01
     -9.594  0.0000E+00  0.1000E-01
     -9.549  0.0000E+00  0.1000E-01
     -9.505  0.0000E+00  0.1000E-01
     -9.461  0.0000E+00  0.1000E-01
     -9.417  0.0000E+00  0.1000E-01
     -9.373  0.0000E+00  0.1000E-01
     -9.328  0.0000E+00  0.1000E-01
     -9.284  0.0000E+00  0.1000E-01
     -9.240  0.0000E+00  0.1000E-01
     -9.196  0.0000E+00  0.1000E-01
     -9.152  0.0000E+00  0.1000E-01
     -9.107  0.0000E+00  0.1000E-01
     -9.063  0.0000E+00  0.1000E-01
     -9.019  0.0000E+00  0.1000E-01
     -8.975  0.0000E+00  0.1000E-01
     -8.930  0.0000E+00  0.1000E-01
     -8.886  0.0000E+00  0.1000E-01
     -8.842  0.0000E+00  0.1000E-01
     -8.798  0.0000E+00  0.1000E-01
     -8.754  0.0000E+00  0.1000E-01
     -8.709  0.0000E+00  0.1000E-01
     -8.665  0.0000E+00  0.1000E-01
     -8.621  0.0000E+00  0.1000E-01
     -8.577  0.0000E+00  0.1000E-01
     -8.533  0.0000E+00  0.1000E-01
     -8.488  0.0000E+00  0.1000E-01
     -8.444  0.0000E+00  0.1000E-01
     -8.400  0.0000E+00  0.1000E-01
     -8.356  0.0000E+00  0.1000E-01
     -8.312  0.0000E+00  0.1000E-01
     -8.267  0.0000E+00  0.1000E-01
     -8.223  0.0000E+00  0.1000E-01
     -8.179  0.0000E+00  0.1000E-01
     -8.135  0.0000E+00  0.1000E-01
     -8.091  0.0000E+00  0.1000E-01
     -8.046  0.0000E+00  0.1000E-01
     -8.002  0.0000E+00  0.1000E-01
     -7.958  0.0000E+00  0.1000E-01
     -7.914  0.0000E+00  0.1000E-01
     -7.870  0.0000E+00  0.1000E-01
     -7.825  0.0000E+00  0.1000E-01
     -7.781  0.0000E+00  0.1000E-01
     -7.737  0.0000E+00  0.1000E-01
     -7.693  0.0000E+00  0.1000E-01
     -7.649  0.0000E+00  0.1000E-01
     -7.604  0.0000E+00  0.1000E-01
     -7.560  0.0000E+00  0.1000E-01
     -7.516  0.0000E+00  0.1000E-01
     -7.472  0.0000E+00  0.1000E-01
     -7.428  0.0000E+00  0.1000E-01
     -7.383  0.0000E+00  0.1000E-01
     -7.339  0.0000E+00  0.1000E-01
     -7.295  0.0000E+00  0.1000E-01
     -7.251  0.0000E+00  0.1000E-01
     -7.207  0.0000E+00  0.1000E-01
     -7.162  0.0000E+00  0.1000E-01
     -7.118  0.0000E+00  0.1000E-01
     -7.074  0.0000E+00  0.1000E-01
     -7.030  0.0000E+00  0.1000E-01
     -6.986  0.0000E+00  0.1000E-01
     -6.941  0.0000E+00  0.1000E-01
     -6.897  0.0000E+00  0.1000E-01
     -6.853  0.0000E+00  0.1000E-01
     -6.809  0.0000E+00  0.1000E-01
     -6.765  0.0000E+00  0.1000E-01
     -6.720  0.0000E+00  0.1000E-01
     -6.676  0.0000E+00  0.1000E-01
     -6.632  0.0000E+00  0.1000E-01
     -6.588  0.0000E+00  0.1000E-01
     -6.544  0.0000E+00  0.1000E-01
     -6.499  0.0000E+00  0.1000E-01
     -6.455  0.0000E+00  0.1000E-01
     -6.411  0.0000E+00  0.1000E-01
     -6.367  0.0000E+00  0.1000E-01
     -6.323  0.0000E+00  0.1000E-01
     -6.278  0.0000E+00  0.1000E-01
     -6.234  0.0000E+00  0.1000E-01
     -6.190  0.0000E+00  0.1000E-01
     -6.146  0.0000E+00  0.1000E-01
     -6.101  0.0000E+00  0.1000E-01
     -6.057  0.0000E+00  0.1000E-01
     -6.013  0.0000E+00  0.1000E-01
     -5.969  0.0000E+00  0.1000E-01
     -5.925  0.0000E+00  0.1000E-01
     -5.880  0.0000E+00  0.1000E-01
     -5.836  0.0000E+00  0.1000E-01
     -5.792  0.0000E+00  0.1000E-01
     -5.748  0.0000E+00  0.1000E-01
     -5.704  0.0000E+00  0.1000E-01
     -5.659  0.0000E+00  0.1000E-01
     -5.615  0.0000E+00  0.1000E-01
     -5.571  0.0000E+00  0.1000E-01
     -5.527  0.0000E+00  0.1000E-01
     -5.483  0.0000E+00  0.1000E-01
     -5.438  0.0000E+00  0.1000E-01
     -5.394  0.0000E+00  0.1000E-01
     -5.350  0.0000E+00  0.1000E-01
     -5.306  0.0000E+00  0.1000E-01
     -5.262  0.0000E+00  0.1000E-01
     -5.217  0.0000E+00  0.1000E-01
     -5.173  0.0000E+00  0.1000E-01
     -5.129  0.0000E+00  0.1000E-01
     -5.085  0.0000E+00  0.1000E-01
     -5.041  0.0000E+00  0.1000E-01
     -4.996  0.0000E+00  0.1000E-01
     -4.952  0.0000E+00  0.1000E-01
     -4.908  0.0000E+00  0.1000E-01
     -4.864  0.0000E+00  0.1000E-01
     -4.820  0.0000E+00  0.1000E-01
     -4.775  0.0000E+00  0.1000E-01
     -4.731  0.0000E+00  0.1000E-01
     -4.687  0.0000E+00  0.1000E-01
     -4.643  0.0000E+00  0.1000E-01
     -4.599  0.0000E+00  0.1000E-01
     -4.554  0.0000E+00  0.1000E-01
     -4.510  0.0000E+00  0.1000E-01
     -4.466  0.0000E+00  0.1000E-01
     -4.422  0.0000E+00  0.1000E-01
     -4.378  0.0000E+00  0.1000E-01
     -4.333  0.0000E+00  0.1000E-01
     -4.289  0.0000E+00  0.1000E-01
     -4.245  0.0000E+00  0.1000E-01
     -4.201  0.0000E+00  0.1000E-01
     -4.157  0.0000E+00  0.1000E-01
     -4.112  0.0000E+00  0.1000E-01
     -4.068  0.0000E+00  0.1000E-01
     -4.024  0.0000E+00  0.1000E-01
     -3.980  0.0000E+00  0.1000E-01
     -3.936  0.0000E+00  0.1000E-01
     -3.891  0.0000E+00  0.1000E-01
     -3.847  0.0000E+00  0.1000E-01
     -3.803  0.0000E+00  0.1000E-01
     -3.759  0.0000E+00  0.1000E-01
     -3.715  0.0000E+00  0.1000E-01
     -3.670  0.0000E+00  0.1000E-01
     -3.626  0.0000E+00  0.1000E-01
     -3.582  0.0000E+00  0.1000E-01
     -3.538  0.0000E+00  0.1000E-01
     -3.494  0.0000E+00  0.1000E-01
     -3.449  0.0000E+00  0.1000E-01
     -3.405  0.0000E+00  0.1000E-01
     -3.361  0.0000E+00  0.1000E-01
     -3.317  0.0000E+00  0.1000E-01
     -3.272  0.0000E+00  0.1000E-01
     -3.228  0.0000E+00  0.1000E-01
     -3.184  0.0000E+00  0.1000E-01
     -3.140  0.0000E+00  0.1000E-01
     -3.096  0.0000E+00  0.1000E-01
     -3.051  0.0000E+00  0.1000E-01
     -3.007  0.0000E+00  0.1000E-01
     -2.963  0.0000E+00  0.1000E-01
     -2.919  0.0000E+00  0.1000E-01
     -2.875  0.0000E+00  0.1000E-01
     -2.830  0.0000E+00  0.1000E-01
     -2.786  0.0000E+00  0.1000E-01
     -2.742  0.0000E+00  0.1000E-01
     -2.698  0.0000E+00  0.1000E-01
     -2.654  0.0000E+00  0.1000E-01
     -2.609  0.0000E+00  0.1000E-01
     -2.565  0.0000E+00  0.1000E-01
     -2.521  0.0000E+00  0.1000E-01
     -2.477  0.0000E+00  0.1000E-01
     -2.433  0.0000E+00  0.1000E-01
     -2.388  0.0000E+00  0.1000E-01
     -2.344  0.0000E+00  0.1000E-01
     -2.300  0.0000E+00  0.1000E-01
     -2.256  0.0000E+00  0.1000E-01
     -2.212  0.0000E+00  0.1000E-01
     -2.167  0.0000E+00  0.1000E-01
     -2.123  0.0000E+00  0.1000E-01
     -2.079  0.0000E+00  0.1000E-01
     -2.035  0.0000E+00  0.1000E-01
     -1.991  0.0000E+00  0.1000E-01
     -1.946  0.0000E+00  0.1000E-01
     -1.902  0.0000E+00  0.1000E-01
     -1.858  0.0000E+00  0.1000E-01
     -1.814  0.0000E+00  0.1000E-01
     -1.770  0.0000E+00  0.1000E-01
     -1.725  0.0000E+00  0.1000E-01
     -1.681  0.0000E+00  0.1000E-01
     -1.637  0.0000E+00  0.1000E-01
     -1.593  0.0000E+00  0.1000E-01
     -1.549  0.0000E+00  0.1000E-01
     -1.504  0.0000E+00  0.1000E-01
     -1.460  0.0000E+00  0.1000E-01
     -1.416  0.0000E+00  0.1000E-01
     -1.372  0.0000E+00  0.1000E-01
     -1.328  0.0000E+00  0.1000E-01
     -1.283  0.0000E+00  0.1000E-01
     -1.239  0.0000E+00  0.1000E-01
     -1.195  0.0000E+00  0.1000E-01
     -1.151  0.0000E+00  0.1000E-01
     -1.107  0.0000E+00  0.1000E-01
     -1.062  0.0000E+00  0.1000E-01
     -1.018  0.0000E+00  0.1000E-01
     -0.974 -0.3026E-30  0.1000E-01
     -0.930 -0.3240E-27  0.1000E-01
     -0.886 -0.2341E-24  0.1000E-01
     -0.841 -0.1140E-21  0.1000E-01
     -0.797 -0.3739E-19  0.1000E-01
     -0.753 -0.8252E-17  0.1000E-01
     -0.709 -0.1184E-14  0.1000E-01
     -0.665 -0.1174E-12  0.1000E-01
     -0.620 -0.7780E-11  0.1000E-01
     -0.576 -0.3442E-09  0.1000E-01
     -0.532 -0.1012E-07  0.1000E-01
     -0.488 -0.1966E-06  0.1000E-01
     -0.443 -0.2504E-05  0.1000E-01
     -0.399 -0.2067E-04  0.9999E-02
     -0.355 -0.1087E-03  0.9994E-02
     -0.311 -0.3538E-03  0.9979E-02
     -0.267 -0.6506E-03  0.9950E-02
     -0.222 -0.2480E-03  0.9939E-02
     -0.178  0.2767E-02  0.1006E-01
     -0.134  0.1124E-01  0.1056E-01
     -0.090  0.2381E-01  0.1161E-01
     -0.046  0.3045E-01  0.1296E-01
     -0.001  0.2799E-01  0.1419E-01
      0.043  0.3381E-01  0.1569E-01
      0.087  0.6072E-01  0.1837E-01
      0.131  0.9724E-01  0.2267E-01
      0.175  0.1207E+00  0.2801E-01
      0.220  0.1086E+00  0.3281E-01
      0.264  0.6393E-01  0.3563E-01
      0.308  0.3087E-01  0.3700E-01
      0.352  0.4139E-01  0.3883E-01
      0.396  0.8186E-01  0.4244E-01
      0.441  0.1248E+00  0.4796E-01
      0.485  0.1426E+00  0.5426E-01
      0.529  0.1199E+00  0.5956E-01
      0.573  0.8520E-01  0.6333E-01
      0.617  0.7211E-01  0.6652E-01
      0.662  0.6541E-01  0.6941E-01
      0.706  0.4907E-01  0.7158E-01
      0.750  0.4068E-01  0.7337E-01
      0.794  0.4642E-01  0.7543E-01
      0.838  0.4772E-01  0.7754E-01
      0.883  0.3421E-01  0.7905E-01
      0.927  0.1600E-01  0.7975E-01
      0.971  0.5096E-02  0.7998E-01
      1.015  0.1272E-02  0.8004E-01
      1.059 -0.4500E-04  0.8003E-01
      1.104 -0.4117E-03  0.8002E-01
      1.148 -0.2628E-03  0.8000E-01
      1.192 -0.8380E-04  0.8000E-01
      1.236 -0.1569E-04  0.8000E-01
      1.280 -0.1833E-05  0.8000E-01
      1.325 -0.1375E-06  0.8000E-01
      1.369 -0.6740E-08  0.8000E-01
      1.413 -0.2180E-09  0.8000E-01
      1.457 -0.4687E-11  0.8000E-01
      1.501 -0.6722E-13  0.8000E-01
      1.546 -0.6467E-15  0.8000E-01
      1.590 -0.3140E-17  0.8000E-01
      1.634  0.0000E+00  0.8000E-01
      1.678  0.0000E+00  0.8000E-01
      1.722  0.0000E+00  0.8000E-01
      1.767  0.0000E+00  0.8000E-01
      1.811  0.0000E+00  0.8000E-01
      1.855  0.0000E+00  0.8000E-01
      1.899  0.0000E+00  0.8000E-01
      1.943  0.0000E+00  0.8000E-01
