    2    2  200    1
  0.1712417E+04  0.1121436E-08  0.1121436E-08  0.3144561E-08  0.5000000E-15
  1.000000000000000E-004
  CAR 
 Pt                                      
      2     10      8
 
  0.0000000E+00  0.0000000E+00  0.0000000E+00  0.6250000E-01
    1      -10.317469   1.000350
    2       -0.156313   0.000000
    3        0.005038   0.000000
    4        0.067995   0.000000
    5        0.327868   0.000000
    6        0.523783   0.000000
    7        0.814329   0.000000
    8        0.943477   0.000000
 
  0.2500000E+00 -0.1294993E-16  0.0000000E+00  0.1250000E+00
    1      -10.317272   0.999917
    2       -0.066129   0.000000
    3        0.082201   0.000000
    4        0.165702   0.000000
    5        0.390608   0.000000
    6        0.602212   0.000000
    7        0.638565   0.000000
    8        0.832822   0.000000
 
  0.5000000E+00 -0.2589986E-16  0.0000000E+00  0.6250000E-01
    1      -10.317267   0.999905
    2        0.187792   0.000000
    3        0.202429   0.000000
    4        0.214725   0.000000
    5        0.458082   0.000000
    6        0.461549   0.000000
    7        0.507951   0.000000
    8        0.630489   0.000000
 
  0.0000000E+00  0.2500000E+00  0.0000000E+00  0.1250000E+00
    1      -10.317272   0.999917
    2       -0.066126   0.000000
    3        0.082200   0.000000
    4        0.165703   0.000000
    5        0.390608   0.000000
    6        0.602262   0.000000
    7        0.638536   0.000000
    8        0.832804   0.000000
 
  0.2500000E+00  0.2500000E+00  0.0000000E+00  0.1250000E+00
    1      -10.317272   0.999916
    2       -0.066113   0.000000
    3        0.082206   0.000000
    4        0.165706   0.000000
    5        0.390607   0.000000
    6        0.602417   0.000000
    7        0.638693   0.000000
    8        0.831885   0.000000
 
  0.5000000E+00  0.2500000E+00  0.0000000E+00  0.1250000E+00
    1      -10.317343   1.000073
    2        0.112715   0.000000
    3        0.193314   0.000000
    4        0.360687   0.000000
    5        0.451964   0.000000
    6        0.468552   0.000000
    7        0.500694   0.000000
    8        0.753306   0.000000
 
 -0.2500000E+00  0.2500000E+00  0.0000000E+00  0.1250000E+00
    1      -10.317343   1.000073
    2        0.112660   0.000000
    3        0.193296   0.000000
    4        0.360677   0.000000
    5        0.452035   0.000000
    6        0.468673   0.000000
    7        0.500738   0.000000
    8        0.753531   0.000000
 
  0.0000000E+00  0.5000000E+00  0.0000000E+00  0.6250000E-01
    1      -10.317267   0.999905
    2        0.187892   0.000000
    3        0.202422   0.000000
    4        0.214643   0.000000
    5        0.458092   0.000000
    6        0.461537   0.000000
    7        0.507966   0.000000
    8        0.630490   0.000000
 
  0.2500000E+00  0.5000000E+00  0.0000000E+00  0.1250000E+00
    1      -10.317343   1.000073
    2        0.112724   0.000000
    3        0.193310   0.000000
    4        0.360693   0.000000
    5        0.452052   0.000000
    6        0.468452   0.000000
    7        0.500700   0.000000
    8        0.753299   0.000000
 
  0.5000000E+00  0.5000000E+00  0.0000000E+00  0.6250000E-01
    1      -10.317266   0.999904
    2        0.187836   0.000000
    3        0.202461   0.000000
    4        0.214838   0.000000
    5        0.458095   0.000000
    6        0.461564   0.000000
    7        0.507879   0.000000
    8        0.630512   0.000000
