 vasp.5.4.4.18Apr17-6-g9f103f2a35 (build May 23 2022 10:35:18) complex          
  
 executed on           IFC18_impi date 2023.06.19  17:14:29
 running on   64 total cores
 distrk:  each k-point on   64 cores,    1 groups
 distr:  one band on NCORES_PER_BAND=   8 cores,    8 groups


--------------------------------------------------------------------------------------------------------


 INCAR:
 POTCAR:    PAW_PBE H 15Jun2001                   
 POTCAR:    PAW_PBE H 15Jun2001                   
   VRHFIN =H: ultrasoft test                                                    
   LEXCH  = PE                                                                  
   EATOM  =    12.4884 eV,    0.9179 Ry                                         
                                                                                
   TITEL  = PAW_PBE H 15Jun2001                                                 
   LULTRA =        F    use ultrasoft PP ?                                      
   IUNSCR =        0    unscreen: 0-lin 1-nonlin 2-no                           
   RPACOR =    0.000    partial core radius                                     
   POMASS =    1.000; ZVAL   =    1.000    mass and valenz                      
   RCORE  =    1.100    outmost cutoff radius                                   
   RWIGS  =    0.700; RWIGS  =    0.370    wigner-seitz radius (au A)           
   ENMAX  =  250.000; ENMIN  =  200.000 eV                                      
   RCLOC  =    0.701    cutoff for local pot                                    
   LCOR   =        T    correct aug charges                                     
   LPAW   =        T    paw PP                                                  
   EAUG   =  400.000                                                            
   RMAX   =    1.123    core radius for proj-oper                               
   RAUG   =    1.200    factor for augmentation sphere                          
   RDEP   =    1.112    radius for radial grids                                 
   RDEPT  =    0.926    core radius for aug-charge                              
                                                                                
   Atomic configuration                                                         
    2 entries                                                                   
     n  l   j            E        occ.                                          
     1  0  0.50        -6.4927   1.0000                                         
     2  1  0.50        -3.4015   0.0000                                         
   Description                                                                  
     l       E           TYP  RCUT    TYP  RCUT                                 
     0     -6.4927494     23  1.100                                             
     0      6.8029130     23  1.100                                             
     1     -4.0817478     23  1.100                                             
  local pseudopotential read in
  atomic valenz-charges read in
  non local Contribution for L=           0  read in
    real space projection operators read in
  non local Contribution for L=           0  read in
    real space projection operators read in
  non local Contribution for L=           1  read in
    real space projection operators read in
    PAW grid and wavefunctions read in
 
   number of l-projection  operators is LMAX  =           3
   number of lm-projection operators is LMMAX =           5
 

 ----------------------------------------------------------------------------- 
|                                                                             |
|  ADVICE TO THIS USER RUNNING 'VASP/VAMP'   (HEAR YOUR MASTER'S VOICE ...):  |
|                                                                             |
|      You have a (more or less) 'small supercell' and for smaller cells      |
|      it is recommended  to use the reciprocal-space projection scheme!      |
|      The real space optimization is not  efficient for small cells and it   |
|      is also less accurate ...                                              |
|      Therefore set LREAL=.FALSE. in the  INCAR file                         |
|                                                                             |
 ----------------------------------------------------------------------------- 

 Optimization of the real space projectors (new method)

 maximal supplied QI-value         = 34.20
 optimisation between [QCUT,QGAM] = [  9.92, 20.18] = [ 27.55,114.04] Ry 
 Optimized for a Real-space Cutoff    1.06 Angstroem

   l    n(q)    QCUT    max X(q) W(low)/X(q) W(high)/X(q)  e(spline) 
   0      6     9.919    19.460    0.17E-02    0.71E-03    0.15E-06
   0      6     9.919    12.209    0.17E-02    0.71E-03    0.14E-06
   1      6     9.919     4.655    0.35E-03    0.20E-02    0.14E-06
  PAW_PBE H 15Jun2001                   :
 energy of atom  1       EATOM=  -12.4884
 kinetic energy error for atom=    0.0098 (will be added to EATOM!!)
 
 
 POSCAR:  H                                      
  positions in cartesian coordinates
  No initial velocities read in
 exchange correlation table for  LEXCH =        8
   RHO(1)=    0.500       N(1)  =     2000
   RHO(2)=  100.500       N(2)  =     4000

 VTST: version 3.2, (02/03/18)

 CHAIN: initializing optimizer
 
 OPT: Using VASP Conjugate-Gradient optimizer
 CHAIN: Read ICHAIN            0
 
 POSCAR:  H                                      
  positions in cartesian coordinates
  No initial velocities read in
 


--------------------------------------------------------------------------------------------------------


 ion  position               nearest neighbor table
   1  0.188  0.515  0.171-   2 0.74
   2  0.188  0.515  0.147-   1 0.74
 

IMPORTANT INFORMATION: All symmetrisations will be switched off!
NOSYMM: (Re-)initialisation of all symmetry stuff for point group C_1.

 
 
 KPOINTS: kpoints                                 

Automatic generation of k-mesh.
Space group operators:
 irot       det(A)        alpha          n_x          n_y          n_z        tau_x        tau_y        tau_z
    1     1.000000     0.000001     1.000000     0.000000     0.000000     0.000000     0.000000     0.000000
 
 Subroutine IBZKPT returns following result:
 ===========================================
 
 Found     10 irreducible k-points:
 
 Following reciprocal coordinates:
            Coordinates               Weight
  0.000000  0.000000  0.000000      1.000000
  0.250000 -0.000000  0.000000      2.000000
  0.500000 -0.000000  0.000000      1.000000
  0.000000  0.250000  0.000000      2.000000
  0.250000  0.250000  0.000000      2.000000
  0.500000  0.250000  0.000000      2.000000
 -0.250000  0.250000  0.000000      2.000000
  0.000000  0.500000  0.000000      1.000000
  0.250000  0.500000  0.000000      2.000000
  0.500000  0.500000  0.000000      1.000000
 
 Following cartesian coordinates:
            Coordinates               Weight
  0.000000  0.000000  0.000000      1.000000
  0.022293 -0.012871  0.000000      2.000000
  0.044586 -0.025742  0.000000      1.000000
  0.000000  0.025742  0.000000      2.000000
  0.022293  0.012871  0.000000      2.000000
  0.044586  0.000000  0.000000      2.000000
 -0.022293  0.038612  0.000000      2.000000
  0.000000  0.051483  0.000000      1.000000
  0.022293  0.038612  0.000000      2.000000
  0.044586  0.025742  0.000000      1.000000
 


--------------------------------------------------------------------------------------------------------




 Dimension of arrays:
   k-points           NKPTS =     10   k-points in BZ     NKDIM =     10   number of bands    NBANDS=      8
   number of dos      NEDOS =    301   number of ions     NIONS =      2
   non local maximal  LDIM  =      3   non local SUM 2l+1 LMDIM =      5
   total plane-waves  NPLWV = 501760
   max r-space proj   IRMAX =    776   max aug-charges    IRDMAX=    438
   dimension x,y,z NGX =    56 NGY =   56 NGZ =  160
   dimension x,y,z NGXF=    80 NGYF=   80 NGZF=  210
   support grid    NGXF=    80 NGYF=   80 NGZF=  210
   ions per type =               2
   NGX,Y,Z   is equivalent  to a cutoff of   8.30,  8.30,  8.46 a.u.
   NGXF,Y,Z  is equivalent  to a cutoff of  11.86, 11.86, 11.10 a.u.

 SYSTEM =  Pt                                      
 POSCAR =   H                                      

 Startparameter for this run:
   NWRITE =      2    write-flag & timer
   PREC   = med       normal or accurate (medium, high low for compatibility)
   ISTART =      0    job   : 0-new  1-cont  2-samecut
   ICHARG =      2    charge: 1-file 2-atom 10-const
   ISPIN  =      1    spin polarized calculation?
   LNONCOLLINEAR =      F non collinear calculations
   LSORBIT =      F    spin-orbit coupling
   INIWAV =      1    electr: 0-lowe 1-rand  2-diag
   LASPH  =      F    aspherical Exc in radial PAW
   METAGGA=      F    non-selfconsistent MetaGGA calc.

 Electronic Relaxation 1
   ENCUT  =  400.0 eV  29.40 Ry    5.42 a.u.  18.29 18.29 51.28*2*pi/ulx,y,z
   ENINI  =  400.0     initial cutoff
   ENAUG  =  400.0 eV  augmentation charge cutoff
   NELM   =    100;   NELMIN=  2; NELMDL= -5     # of ELM steps 
   EDIFF  = 0.1E-04   stopping-criterion for ELM
   LREAL  =      T    real-space projection
   NLSPLINE    = F    spline interpolate recip. space projectors
   LCOMPAT=      F    compatible to vasp.4.4
   GGA_COMPAT  = T    GGA compatible to vasp.4.4-vasp.4.6
   LMAXPAW     = -100 max onsite density
   LMAXMIX     =    2 max onsite mixed and CHGCAR
   VOSKOWN=      0    Vosko Wilk Nusair interpolation
   ROPT   =   -0.00200
 Ionic relaxation
   EDIFFG = 0.1E-03   stopping-criterion for IOM
   NSW    =    200    number of steps for IOM
   NBLOCK =      1;   KBLOCK =    200    inner block; outer block 
   IBRION =      2    ionic relax: 0-MD 1-quasi-New 2-CG
   NFREE  =      1    steps in history (QN), initial steepest desc. (CG)
   ISIF   =      1    stress and relaxation
   IWAVPR =     11    prediction:  0-non 1-charg 2-wave 3-comb
   ISYM   =      0    0-nonsym 1-usesym 2-fastsym
   LCORR  =      T    Harris-Foulkes like correction to forces

   POTIM  = 0.5000    time-step for ionic-motion
   TEIN   =    0.0    initial temperature
   TEBEG  =    0.0;   TEEND  =   0.0 temperature during run
   SMASS  =  -3.00    Nose mass-parameter (am)
   estimated Nose-frequenzy (Omega)   =  0.10E-29 period in steps =****** mass=  -0.287E-26a.u.
   SCALEE = 1.0000    scale energy and forces
   NPACO  =    256;   APACO  = 16.0  distance and # of slots for P.C.
   PSTRESS=    0.0 pullay stress

  Mass of Ions in am
   POMASS =   1.00
  Ionic Valenz
   ZVAL   =   1.00
  Atomic Wigner-Seitz radii
   RWIGS  =  -1.00
  virtual crystal weights 
   VCA    =   1.00
   NELECT =       2.0000    total number of electrons
   NUPDOWN=      -1.0000    fix difference up-down

 DOS related values:
   EMIN   =  10.00;   EMAX   =-10.00  energy-range for DOS
   EFERMI =   0.00
   ISMEAR =     1;   SIGMA  =   0.10  broadening in eV -4-tet -1-fermi 0-gaus

 Electronic relaxation 2 (details)
   IALGO  =     68    algorithm
   LDIAG  =      T    sub-space diagonalisation (order eigenvalues)
   LSUBROT=      F    optimize rotation matrix (better conditioning)
   TURBO    =      0    0=normal 1=particle mesh
   IRESTART =      0    0=no restart 2=restart with 2 vectors
   NREBOOT  =      0    no. of reboots
   NMIN     =      0    reboot dimension
   EREF     =   0.00    reference energy to select bands
   IMIX   =      4    mixing-type and parameters
     AMIX     =   0.40;   BMIX     =  1.00
     AMIX_MAG =   1.60;   BMIX_MAG =  1.00
     AMIN     =   0.10
     WC   =   100.;   INIMIX=   1;  MIXPRE=   1;  MAXMIX= -45

 Intra band minimization:
   WEIMIN = 0.0010     energy-eigenvalue tresh-hold
   EBREAK =  0.31E-06  absolut break condition
   DEPER  =   0.30     relativ break condition  

   TIME   =   0.40     timestep for ELM

  volume/ion in A,a.u.               =    1712.42     11555.96
  Fermi-wavevector in a.u.,A,eV,Ry     =   0.136837  0.258585  0.254762  0.018724
  Thomas-Fermi vector in A             =   0.788781
 
 Write flags
   LWAVE        =      F    write WAVECAR
   LDOWNSAMPLE  =      F    k-point downsampling of WAVECAR
   LCHARG       =      F    write CHGCAR
   LVTOT        =      F    write LOCPOT, total local potential
   LVHAR        =      F    write LOCPOT, Hartree potential only
   LELF         =      F    write electronic localiz. function (ELF)
   LORBIT       =      0    0 simple, 1 ext, 2 COOP (PROOUT), +10 PAW based schemes


 Dipole corrections
   LMONO  =      F    monopole corrections only (constant potential shift)
   LDIPOL =      F    correct potential (dipole corrections)
   IDIPOL =      0    1-x, 2-y, 3-z, 4-all directions 
   EPSILON=  1.0000000 bulk dielectric constant

 Exchange correlation treatment:
   GGA     =    --    GGA type
   LEXCH   =     8    internal setting for exchange type
   VOSKOWN=      0    Vosko Wilk Nusair interpolation
   LHFCALC =     F    Hartree Fock is set to
   LHFONE  =     F    Hartree Fock one center treatment
   AEXX    =    0.0000 exact exchange contribution

 Linear response parameters
   LEPSILON=     F    determine dielectric tensor
   LRPA    =     F    only Hartree local field effects (RPA)
   LNABLA  =     F    use nabla operator in PAW spheres
   LVEL    =     F    velocity operator in full k-point grid
   LINTERFAST=   F  fast interpolation
   KINTER  =     0    interpolate to denser k-point grid
   CSHIFT  =0.1000    complex shift for real part using Kramers Kronig
   OMEGAMAX=  -1.0    maximum frequency
   DEG_THRESHOLD= 0.2000000E-02 threshold for treating states as degnerate
   RTIME   =   -0.100 relaxation time in fs
  (WPLASMAI=    0.000 imaginary part of plasma frequency in eV, 0.658/RTIME)
   DFIELD  = 0.0000000 0.0000000 0.0000000 field for delta impulse in time
 
 Orbital magnetization related:
   ORBITALMAG=     F  switch on orbital magnetization
   LCHIMAG   =     F  perturbation theory with respect to B field
   DQ        =  0.001000  dq finite difference perturbation B field
   LLRAUG    =     F  two centre corrections for induced B field



--------------------------------------------------------------------------------------------------------


 conjugate gradient relaxation of ions
 charge density and potential will be updated during run
 non-spin polarized calculation
 RMM-DIIS sequential band-by-band and
  variant of blocked Davidson during initial phase
 perform sub-space diagonalisation
    before iterative eigenvector-optimisation
 modified Broyden-mixing scheme, WC =      100.0
 initial mixing is a Kerker type mixing with AMIX =  0.4000 and BMIX =      1.0000
 Hartree-type preconditioning will be used
 using additional bands            7
 real space projection scheme for non local part
 calculate Harris-corrections to forces 
   (improved forces if not selfconsistent)
 use gradient corrections 
 use of overlap-Matrix (Vanderbilt PP)
 Methfessel and Paxton  Order N= 1 SIGMA  =   0.10


--------------------------------------------------------------------------------------------------------


  energy-cutoff  :      400.00
  volume of cell :     3424.83
      direct lattice vectors                 reciprocal lattice vectors
    11.214359184  0.000000000  0.000000000     0.089171390 -0.051483119  0.000000000
     5.607178664  9.711919634  0.000000000     0.000000000  0.102966256  0.000000000
     0.000000000  0.000000000 31.445607950     0.000000000  0.000000000  0.031800943

  length of vectors
    11.214359184 11.214358455 31.445607950     0.102966249  0.102966256  0.031800943


 
 k-points in units of 2pi/SCALE and weight: kpoints                                 
   0.00000000  0.00000000  0.00000000       0.062
   0.02229285 -0.01287078  0.00000000       0.125
   0.04458570 -0.02574156  0.00000000       0.062
   0.00000000  0.02574156  0.00000000       0.125
   0.02229285  0.01287078  0.00000000       0.125
   0.04458570  0.00000000  0.00000000       0.125
  -0.02229285  0.03861234  0.00000000       0.125
   0.00000000  0.05148313  0.00000000       0.062
   0.02229285  0.03861235  0.00000000       0.125
   0.04458570  0.02574157  0.00000000       0.062
 
 k-points in reciprocal lattice and weights: kpoints                                 
   0.00000000  0.00000000  0.00000000       0.062
   0.25000000 -0.00000000  0.00000000       0.125
   0.50000000 -0.00000000  0.00000000       0.062
   0.00000000  0.25000000  0.00000000       0.125
   0.25000000  0.25000000  0.00000000       0.125
   0.50000000  0.25000000  0.00000000       0.125
  -0.25000000  0.25000000  0.00000000       0.125
   0.00000000  0.50000000  0.00000000       0.062
   0.25000000  0.50000000  0.00000000       0.125
   0.50000000  0.50000000  0.00000000       0.062
 
 position of ions in fractional coordinates (direct lattice) 
   0.18844136  0.51483128  0.17072600
   0.18844136  0.51483128  0.14728343
 
 position of ions in cartesian coordinates  (Angst):
   5.00000000  5.00000000  5.36858300
   5.00000000  5.00000000  4.63141700
 


--------------------------------------------------------------------------------------------------------


 k-point  1 :   0.0000 0.0000 0.0000  plane waves:   62299
 k-point  2 :   0.2500-0.0000 0.0000  plane waves:   62176
 k-point  3 :   0.5000-0.0000 0.0000  plane waves:   62174
 k-point  4 :   0.0000 0.2500 0.0000  plane waves:   62176
 k-point  5 :   0.2500 0.2500 0.0000  plane waves:   62176
 k-point  6 :   0.5000 0.2500 0.0000  plane waves:   62212
 k-point  7 :  -0.2500 0.2500 0.0000  plane waves:   62212
 k-point  8 :   0.0000 0.5000 0.0000  plane waves:   62174
 k-point  9 :   0.2500 0.5000 0.0000  plane waves:   62212
 k-point 10 :   0.5000 0.5000 0.0000  plane waves:   62174

 maximum and minimum number of plane-waves per node :      7818     7739

 maximum number of plane-waves:     62299
 maximum index in each direction: 
   IXMAX=   18   IYMAX=   18   IZMAX=   51
   IXMIN=  -18   IYMIN=  -18   IZMIN=  -51


 real space projection operators:
  total allocation   :         54.80 KBytes
  max/ min on nodes  :          7.58          6.33


 parallel 3D FFT for wavefunctions:
    minimum data exchange during FFTs selected (reduces bandwidth)
 parallel 3D FFT for charge:
    minimum data exchange during FFTs selected (reduces bandwidth)


 total amount of memory used by VASP MPI-rank0    38443. kBytes
=======================================================================

   base      :      30000. kBytes
   nonlr-proj:         32. kBytes
   fftplans  :       3023. kBytes
   grid      :       4138. kBytes
   one-center:          1. kBytes
   wavefun   :       1249. kBytes
 
     INWAV:  cpu time    0.0000: real time    0.0001
 Broyden mixing: mesh for mixing (old mesh)
   NGX = 37   NGY = 37   NGZ =103
  (NGX  = 80   NGY  = 80   NGZ  =210)
  gives a total of 141007 points

 initial charge density was supplied:
 charge density of overlapping atoms calculated
 number of electron       2.0000000 magnetization 
 keeping initial charge density in first step


--------------------------------------------------------------------------------------------------------


 Maximum index for non-local projection operator           90
 Maximum index for augmentation-charges            0 (set IRDMAX)


--------------------------------------------------------------------------------------------------------


 First call to EWALD:  gamma=   0.118
 Maximum number of real-space cells 4x 4x 2
 Maximum number of reciprocal cells 2x 2x 5

    FEWALD:  cpu time    0.0016: real time    0.0016


--------------------------------------- Iteration      1(   1)  ---------------------------------------


    POTLOK:  cpu time    0.0163: real time    0.0193
    SETDIJ:  cpu time    0.0012: real time    0.0013
     EDDAV:  cpu time    0.1733: real time    0.1743
       DOS:  cpu time    0.0004: real time    0.0005
    --------------------------------------------
      LOOP:  cpu time    0.1911: real time    0.1954

 eigenvalue-minimisations  :   240
 total energy-change (2. order) :-0.1796964E+01  (-0.3788718E+02)
 number of electron       2.0000000 magnetization 
 augmentation part        2.0000000 magnetization 

 Free energy of the ion-electron system (eV)
  ---------------------------------------------------
  alpha Z        PSCENC =         0.00284530
  Ewald energy   TEWEN  =        17.40483781
  -Hartree energ DENC   =       -26.63703136
  -exchange      EXHF   =         0.00000000
  -V(xc)+E(xc)   XCENC  =         4.35839037
  PAW double counting   =         4.26805487       -4.28581044
  entropy T*S    EENTRO =         0.00121107
  eigenvalues    EBANDS =       -21.86672714
  atomic energy  EATOM  =        24.95726533
  Solvation  Ediel_sol  =         0.00000000
  ---------------------------------------------------
  free energy    TOTEN  =        -1.79696419 eV

  energy without entropy =       -1.79817526  energy(sigma->0) =       -1.79736788


--------------------------------------------------------------------------------------------------------




--------------------------------------- Iteration      1(   2)  ---------------------------------------


     EDDAV:  cpu time    0.1291: real time    0.1299
       DOS:  cpu time    0.0002: real time    0.0001
    --------------------------------------------
      LOOP:  cpu time    0.1292: real time    0.1300

 eigenvalue-minimisations  :   168
 total energy-change (2. order) :-0.5549013E+01  (-0.5552439E+01)
 number of electron       2.0000000 magnetization 
 augmentation part        2.0000000 magnetization 

 Free energy of the ion-electron system (eV)
  ---------------------------------------------------
  alpha Z        PSCENC =         0.00284530
  Ewald energy   TEWEN  =        17.40483781
  -Hartree energ DENC   =       -26.63703136
  -exchange      EXHF   =         0.00000000
  -V(xc)+E(xc)   XCENC  =         4.35839037
  PAW double counting   =         4.26805487       -4.28581044
  entropy T*S    EENTRO =         0.00648184
  eigenvalues    EBANDS =       -27.42101044
  atomic energy  EATOM  =        24.95726533
  Solvation  Ediel_sol  =         0.00000000
  ---------------------------------------------------
  free energy    TOTEN  =        -7.34597672 eV

  energy without entropy =       -7.35245856  energy(sigma->0) =       -7.34813733


--------------------------------------------------------------------------------------------------------




--------------------------------------- Iteration      1(   3)  ---------------------------------------


     EDDAV:  cpu time    0.1867: real time    0.1875
       DOS:  cpu time    0.0002: real time    0.0001
    --------------------------------------------
      LOOP:  cpu time    0.1868: real time    0.1876

 eigenvalue-minimisations  :   280
 total energy-change (2. order) :-0.1117444E+00  (-0.1110619E+00)
 number of electron       2.0000000 magnetization 
 augmentation part        2.0000000 magnetization 

 Free energy of the ion-electron system (eV)
  ---------------------------------------------------
  alpha Z        PSCENC =         0.00284530
  Ewald energy   TEWEN  =        17.40483781
  -Hartree energ DENC   =       -26.63703136
  -exchange      EXHF   =         0.00000000
  -V(xc)+E(xc)   XCENC  =         4.35839037
  PAW double counting   =         4.26805487       -4.28581044
  entropy T*S    EENTRO =         0.00579792
  eigenvalues    EBANDS =       -27.53207091
  atomic energy  EATOM  =        24.95726533
  Solvation  Ediel_sol  =         0.00000000
  ---------------------------------------------------
  free energy    TOTEN  =        -7.45772111 eV

  energy without entropy =       -7.46351903  energy(sigma->0) =       -7.45965375


--------------------------------------------------------------------------------------------------------




--------------------------------------- Iteration      1(   4)  ---------------------------------------


     EDDAV:  cpu time    0.1280: real time    0.1287
       DOS:  cpu time    0.0002: real time    0.0002
    --------------------------------------------
      LOOP:  cpu time    0.1282: real time    0.1288

 eigenvalue-minimisations  :   176
 total energy-change (2. order) :-0.4806698E-04  (-0.4806433E-04)
 number of electron       2.0000000 magnetization 
 augmentation part        2.0000000 magnetization 

 Free energy of the ion-electron system (eV)
  ---------------------------------------------------
  alpha Z        PSCENC =         0.00284530
  Ewald energy   TEWEN  =        17.40483781
  -Hartree energ DENC   =       -26.63703136
  -exchange      EXHF   =         0.00000000
  -V(xc)+E(xc)   XCENC  =         4.35839037
  PAW double counting   =         4.26805487       -4.28581044
  entropy T*S    EENTRO =         0.00579791
  eigenvalues    EBANDS =       -27.53211897
  atomic energy  EATOM  =        24.95726533
  Solvation  Ediel_sol  =         0.00000000
  ---------------------------------------------------
  free energy    TOTEN  =        -7.45776918 eV

  energy without entropy =       -7.46356709  energy(sigma->0) =       -7.45970182


--------------------------------------------------------------------------------------------------------




--------------------------------------- Iteration      1(   5)  ---------------------------------------


     EDDAV:  cpu time    0.1731: real time    0.1738
       DOS:  cpu time    0.0002: real time    0.0002
    CHARGE:  cpu time    0.0082: real time    0.0083
    MIXING:  cpu time    0.0018: real time    0.0019
    --------------------------------------------
      LOOP:  cpu time    0.1832: real time    0.1842

 eigenvalue-minimisations  :   256
 total energy-change (2. order) :-0.1968923E-06  (-0.1983844E-06)
 number of electron       2.0000040 magnetization 
 augmentation part        0.0469586 magnetization 

 Broyden mixing:
  rms(total) = 0.45696E+00    rms(broyden)= 0.45681E+00
  rms(prec ) = 0.47139E+00
  weight for this iteration     100.00

 Free energy of the ion-electron system (eV)
  ---------------------------------------------------
  alpha Z        PSCENC =         0.00284530
  Ewald energy   TEWEN  =        17.40483781
  -Hartree energ DENC   =       -26.63703136
  -exchange      EXHF   =         0.00000000
  -V(xc)+E(xc)   XCENC  =         4.35839037
  PAW double counting   =         4.26805487       -4.28581044
  entropy T*S    EENTRO =         0.00579791
  eigenvalues    EBANDS =       -27.53211917
  atomic energy  EATOM  =        24.95726533
  Solvation  Ediel_sol  =         0.00000000
  ---------------------------------------------------
  free energy    TOTEN  =        -7.45776938 eV

  energy without entropy =       -7.46356729  energy(sigma->0) =       -7.45970201


--------------------------------------------------------------------------------------------------------




--------------------------------------- Iteration      1(   6)  ---------------------------------------


    POTLOK:  cpu time    0.0118: real time    0.0120
    SETDIJ:  cpu time    0.0009: real time    0.0009
    EDDIAG:  cpu time    0.0504: real time    0.0517
  RMM-DIIS:  cpu time    0.1039: real time    0.1042
    ORTHCH:  cpu time    0.0045: real time    0.0045
       DOS:  cpu time    0.0001: real time    0.0001
    CHARGE:  cpu time    0.0086: real time    0.0086
    MIXING:  cpu time    0.0014: real time    0.0015
    --------------------------------------------
      LOOP:  cpu time    0.1816: real time    0.1836

 eigenvalue-minimisations  :   160
 total energy-change (2. order) : 0.4608522E+00  (-0.1792230E-01)
 number of electron       2.0000038 magnetization 
 augmentation part        0.0451202 magnetization 

 Broyden mixing:
  rms(total) = 0.25110E+00    rms(broyden)= 0.25110E+00
  rms(prec ) = 0.25985E+00
  weight for this iteration     100.00

 eigenvalues of (default mixing * dielectric matrix)
  average eigenvalue GAMMA=   2.1952
  2.1952

 Free energy of the ion-electron system (eV)
  ---------------------------------------------------
  alpha Z        PSCENC =         0.00284530
  Ewald energy   TEWEN  =        17.40483781
  -Hartree energ DENC   =       -29.18241623
  -exchange      EXHF   =         0.00000000
  -V(xc)+E(xc)   XCENC  =         4.72274836
  PAW double counting   =        11.28765502      -11.31949742
  entropy T*S    EENTRO =         0.00579791
  eigenvalues    EBANDS =       -24.87615329
  atomic energy  EATOM  =        24.95726533
  Solvation  Ediel_sol  =         0.00000000
  ---------------------------------------------------
  free energy    TOTEN  =        -6.99691721 eV

  energy without entropy =       -7.00271512  energy(sigma->0) =       -6.99884985


--------------------------------------------------------------------------------------------------------




--------------------------------------- Iteration      1(   7)  ---------------------------------------


    POTLOK:  cpu time    0.0138: real time    0.0193
    SETDIJ:  cpu time    0.0053: real time    0.0053
    EDDIAG:  cpu time    0.0392: real time    0.0395
  RMM-DIIS:  cpu time    0.0999: real time    0.1001
    ORTHCH:  cpu time    0.0026: real time    0.0026
       DOS:  cpu time    0.0001: real time    0.0001
    CHARGE:  cpu time    0.0078: real time    0.0079
    MIXING:  cpu time    0.0008: real time    0.0008
    --------------------------------------------
      LOOP:  cpu time    0.1695: real time    0.1756

 eigenvalue-minimisations  :   160
 total energy-change (2. order) : 0.2521909E+00  (-0.4897990E-01)
 number of electron       2.0000036 magnetization 
 augmentation part        0.0421547 magnetization 

 Broyden mixing:
  rms(total) = 0.30015E-01    rms(broyden)= 0.29932E-01
  rms(prec ) = 0.31322E-01
  weight for this iteration     100.00

 eigenvalues of (default mixing * dielectric matrix)
  average eigenvalue GAMMA=   2.5919
  2.5919  2.5919

 Free energy of the ion-electron system (eV)
  ---------------------------------------------------
  alpha Z        PSCENC =         0.00284530
  Ewald energy   TEWEN  =        17.40483781
  -Hartree energ DENC   =       -33.09341157
  -exchange      EXHF   =         0.00000000
  -V(xc)+E(xc)   XCENC  =         5.28880207
  PAW double counting   =        25.37572185      -25.43022299
  entropy T*S    EENTRO =         0.00579791
  eigenvalues    EBANDS =       -21.25636202
  atomic energy  EATOM  =        24.95726533
  Solvation  Ediel_sol  =         0.00000000
  ---------------------------------------------------
  free energy    TOTEN  =        -6.74472630 eV

  energy without entropy =       -6.75052422  energy(sigma->0) =       -6.74665894


--------------------------------------------------------------------------------------------------------




--------------------------------------- Iteration      1(   8)  ---------------------------------------


    POTLOK:  cpu time    0.0122: real time    0.0162
    SETDIJ:  cpu time    0.0012: real time    0.0012
    EDDIAG:  cpu time    0.0376: real time    0.0378
  RMM-DIIS:  cpu time    0.0985: real time    0.0989
    ORTHCH:  cpu time    0.0026: real time    0.0026
       DOS:  cpu time    0.0002: real time    0.0002
    CHARGE:  cpu time    0.0077: real time    0.0077
    MIXING:  cpu time    0.0006: real time    0.0006
    --------------------------------------------
      LOOP:  cpu time    0.1605: real time    0.1652

 eigenvalue-minimisations  :   160
 total energy-change (2. order) :-0.3737257E-02  (-0.4935570E-03)
 number of electron       2.0000036 magnetization 
 augmentation part        0.0422293 magnetization 

 Broyden mixing:
  rms(total) = 0.23934E-01    rms(broyden)= 0.23931E-01
  rms(prec ) = 0.25007E-01
  weight for this iteration     100.00

 eigenvalues of (default mixing * dielectric matrix)
  average eigenvalue GAMMA=   1.9825
  0.9303  2.5086  2.5086

 Free energy of the ion-electron system (eV)
  ---------------------------------------------------
  alpha Z        PSCENC =         0.00284530
  Ewald energy   TEWEN  =        17.40483781
  -Hartree energ DENC   =       -33.01062365
  -exchange      EXHF   =         0.00000000
  -V(xc)+E(xc)   XCENC  =         5.26202393
  PAW double counting   =        24.15618698      -24.20447339
  entropy T*S    EENTRO =         0.00579791
  eigenvalues    EBANDS =       -21.32232377
  atomic energy  EATOM  =        24.95726533
  Solvation  Ediel_sol  =         0.00000000
  ---------------------------------------------------
  free energy    TOTEN  =        -6.74846356 eV

  energy without entropy =       -6.75426147  energy(sigma->0) =       -6.75039620


--------------------------------------------------------------------------------------------------------




--------------------------------------- Iteration      1(   9)  ---------------------------------------


    POTLOK:  cpu time    0.0109: real time    0.0112
    SETDIJ:  cpu time    0.0009: real time    0.0009
    EDDIAG:  cpu time    0.0377: real time    0.0379
  RMM-DIIS:  cpu time    0.0977: real time    0.0979
    ORTHCH:  cpu time    0.0026: real time    0.0026
       DOS:  cpu time    0.0001: real time    0.0001
    CHARGE:  cpu time    0.0077: real time    0.0077
    MIXING:  cpu time    0.0006: real time    0.0006
    --------------------------------------------
      LOOP:  cpu time    0.1583: real time    0.1590

 eigenvalue-minimisations  :   160
 total energy-change (2. order) : 0.3127255E-02  (-0.3815254E-03)
 number of electron       2.0000036 magnetization 
 augmentation part        0.0419930 magnetization 

 Broyden mixing:
  rms(total) = 0.36355E-02    rms(broyden)= 0.36263E-02
  rms(prec ) = 0.46639E-02
  weight for this iteration     100.00

 eigenvalues of (default mixing * dielectric matrix)
  average eigenvalue GAMMA=   2.5874
  4.2853  0.9972  2.7048  2.3625

 Free energy of the ion-electron system (eV)
  ---------------------------------------------------
  alpha Z        PSCENC =         0.00284530
  Ewald energy   TEWEN  =        17.40483781
  -Hartree energ DENC   =       -33.41785221
  -exchange      EXHF   =         0.00000000
  -V(xc)+E(xc)   XCENC  =         5.31716699
  PAW double counting   =        25.59304011      -25.64344029
  entropy T*S    EENTRO =         0.00579791
  eigenvalues    EBANDS =       -20.96499726
  atomic energy  EATOM  =        24.95726533
  Solvation  Ediel_sol  =         0.00000000
  ---------------------------------------------------
  free energy    TOTEN  =        -6.74533631 eV

  energy without entropy =       -6.75113422  energy(sigma->0) =       -6.74726894


--------------------------------------------------------------------------------------------------------




--------------------------------------- Iteration      1(  10)  ---------------------------------------


    POTLOK:  cpu time    0.0106: real time    0.0109
    SETDIJ:  cpu time    0.0009: real time    0.0009
    EDDIAG:  cpu time    0.0374: real time    0.0376
  RMM-DIIS:  cpu time    0.0984: real time    0.0986
    ORTHCH:  cpu time    0.0027: real time    0.0027
       DOS:  cpu time    0.0002: real time    0.0002
    CHARGE:  cpu time    0.0076: real time    0.0077
    MIXING:  cpu time    0.0008: real time    0.0008
    --------------------------------------------
      LOOP:  cpu time    0.1586: real time    0.1593

 eigenvalue-minimisations  :   160
 total energy-change (2. order) :-0.1118620E-02  (-0.1250460E-03)
 number of electron       2.0000036 magnetization 
 augmentation part        0.0419063 magnetization 

 Broyden mixing:
  rms(total) = 0.23294E-02    rms(broyden)= 0.23267E-02
  rms(prec ) = 0.25924E-02
  weight for this iteration     100.00

 eigenvalues of (default mixing * dielectric matrix)
  average eigenvalue GAMMA=   2.2175
  4.2034  2.4517  2.4517  0.9904  0.9904

 Free energy of the ion-electron system (eV)
  ---------------------------------------------------
  alpha Z        PSCENC =         0.00284530
  Ewald energy   TEWEN  =        17.40483781
  -Hartree energ DENC   =       -33.62420404
  -exchange      EXHF   =         0.00000000
  -V(xc)+E(xc)   XCENC  =         5.33552787
  PAW double counting   =        25.64821632      -25.69918586
  entropy T*S    EENTRO =         0.00579791
  eigenvalues    EBANDS =       -20.77755555
  atomic energy  EATOM  =        24.95726533
  Solvation  Ediel_sol  =         0.00000000
  ---------------------------------------------------
  free energy    TOTEN  =        -6.74645493 eV

  energy without entropy =       -6.75225284  energy(sigma->0) =       -6.74838756


--------------------------------------------------------------------------------------------------------




--------------------------------------- Iteration      1(  11)  ---------------------------------------


    POTLOK:  cpu time    0.0105: real time    0.0107
    SETDIJ:  cpu time    0.0009: real time    0.0009
    EDDIAG:  cpu time    0.0372: real time    0.0374
  RMM-DIIS:  cpu time    0.0983: real time    0.0985
    ORTHCH:  cpu time    0.0026: real time    0.0026
       DOS:  cpu time    0.0001: real time    0.0001
    CHARGE:  cpu time    0.0078: real time    0.0078
    MIXING:  cpu time    0.0007: real time    0.0007
    --------------------------------------------
      LOOP:  cpu time    0.1581: real time    0.1588

 eigenvalue-minimisations  :   160
 total energy-change (2. order) :-0.5542332E-03  (-0.2214314E-05)
 number of electron       2.0000036 magnetization 
 augmentation part        0.0418969 magnetization 

 Broyden mixing:
  rms(total) = 0.12247E-02    rms(broyden)= 0.12243E-02
  rms(prec ) = 0.15146E-02
  weight for this iteration     100.00

 eigenvalues of (default mixing * dielectric matrix)
  average eigenvalue GAMMA=   2.7246
  5.5532  3.9239  2.6070  2.2793  1.0167  0.9671

 Free energy of the ion-electron system (eV)
  ---------------------------------------------------
  alpha Z        PSCENC =         0.00284530
  Ewald energy   TEWEN  =        17.40483781
  -Hartree energ DENC   =       -33.62802364
  -exchange      EXHF   =         0.00000000
  -V(xc)+E(xc)   XCENC  =         5.33453976
  PAW double counting   =        25.61775758      -25.66850561
  entropy T*S    EENTRO =         0.00579791
  eigenvalues    EBANDS =       -20.77352359
  atomic energy  EATOM  =        24.95726533
  Solvation  Ediel_sol  =         0.00000000
  ---------------------------------------------------
  free energy    TOTEN  =        -6.74700916 eV

  energy without entropy =       -6.75280707  energy(sigma->0) =       -6.74894180


--------------------------------------------------------------------------------------------------------




--------------------------------------- Iteration      1(  12)  ---------------------------------------


    POTLOK:  cpu time    0.0102: real time    0.0104
    SETDIJ:  cpu time    0.0009: real time    0.0010
    EDDIAG:  cpu time    0.0372: real time    0.0374
  RMM-DIIS:  cpu time    0.0989: real time    0.0992
    ORTHCH:  cpu time    0.0027: real time    0.0027
       DOS:  cpu time    0.0001: real time    0.0001
    CHARGE:  cpu time    0.0078: real time    0.0078
    MIXING:  cpu time    0.0008: real time    0.0008
    --------------------------------------------
      LOOP:  cpu time    0.1587: real time    0.1595

 eigenvalue-minimisations  :   160
 total energy-change (2. order) :-0.2011195E-02  (-0.3988555E-04)
 number of electron       2.0000036 magnetization 
 augmentation part        0.0419047 magnetization 

 Broyden mixing:
  rms(total) = 0.79188E-03    rms(broyden)= 0.79188E-03
  rms(prec ) = 0.84819E-03
  weight for this iteration     100.00

 eigenvalues of (default mixing * dielectric matrix)
  average eigenvalue GAMMA=   2.7407
  5.8008  3.9129  0.9799  1.0605  2.6065  2.6065  2.2180

 Free energy of the ion-electron system (eV)
  ---------------------------------------------------
  alpha Z        PSCENC =         0.00284530
  Ewald energy   TEWEN  =        17.40483781
  -Hartree energ DENC   =       -33.61847668
  -exchange      EXHF   =         0.00000000
  -V(xc)+E(xc)   XCENC  =         5.32924902
  PAW double counting   =        25.54400610      -25.59448801
  entropy T*S    EENTRO =         0.00579791
  eigenvalues    EBANDS =       -20.78005713
  atomic energy  EATOM  =        24.95726533
  Solvation  Ediel_sol  =         0.00000000
  ---------------------------------------------------
  free energy    TOTEN  =        -6.74902035 eV

  energy without entropy =       -6.75481827  energy(sigma->0) =       -6.75095299


--------------------------------------------------------------------------------------------------------




--------------------------------------- Iteration      1(  13)  ---------------------------------------


    POTLOK:  cpu time    0.0101: real time    0.0103
    SETDIJ:  cpu time    0.0010: real time    0.0010
    EDDIAG:  cpu time    0.0378: real time    0.0380
  RMM-DIIS:  cpu time    0.0975: real time    0.0977
    ORTHCH:  cpu time    0.0026: real time    0.0027
       DOS:  cpu time    0.0002: real time    0.0002
    CHARGE:  cpu time    0.0075: real time    0.0076
    MIXING:  cpu time    0.0010: real time    0.0010
    --------------------------------------------
      LOOP:  cpu time    0.1577: real time    0.1584

 eigenvalue-minimisations  :   160
 total energy-change (2. order) :-0.1712181E-03  (-0.1493419E-05)
 number of electron       2.0000036 magnetization 
 augmentation part        0.0418932 magnetization 

 Broyden mixing:
  rms(total) = 0.53161E-03    rms(broyden)= 0.53156E-03
  rms(prec ) = 0.56904E-03
  weight for this iteration     100.00

 eigenvalues of (default mixing * dielectric matrix)
  average eigenvalue GAMMA=   2.7645
  6.9387  4.2170  3.2066  2.5715  2.2465  1.0262  1.0262  0.8829

 Free energy of the ion-electron system (eV)
  ---------------------------------------------------
  alpha Z        PSCENC =         0.00284530
  Ewald energy   TEWEN  =        17.40483781
  -Hartree energ DENC   =       -33.63500670
  -exchange      EXHF   =         0.00000000
  -V(xc)+E(xc)   XCENC  =         5.33107170
  PAW double counting   =        25.57315567      -25.62381311
  entropy T*S    EENTRO =         0.00579791
  eigenvalues    EBANDS =       -20.76534548
  atomic energy  EATOM  =        24.95726533
  Solvation  Ediel_sol  =         0.00000000
  ---------------------------------------------------
  free energy    TOTEN  =        -6.74919157 eV

  energy without entropy =       -6.75498948  energy(sigma->0) =       -6.75112421


--------------------------------------------------------------------------------------------------------




--------------------------------------- Iteration      1(  14)  ---------------------------------------


    POTLOK:  cpu time    0.0099: real time    0.0102
    SETDIJ:  cpu time    0.0009: real time    0.0009
    EDDIAG:  cpu time    0.0369: real time    0.0372
  RMM-DIIS:  cpu time    0.0994: real time    0.0998
    ORTHCH:  cpu time    0.0025: real time    0.0026
       DOS:  cpu time    0.0001: real time    0.0001
    CHARGE:  cpu time    0.0076: real time    0.0076
    MIXING:  cpu time    0.0009: real time    0.0009
    --------------------------------------------
      LOOP:  cpu time    0.1583: real time    0.1593

 eigenvalue-minimisations  :   160
 total energy-change (2. order) :-0.2133800E-03  (-0.1709896E-05)
 number of electron       2.0000036 magnetization 
 augmentation part        0.0418931 magnetization 

 Broyden mixing:
  rms(total) = 0.24172E-03    rms(broyden)= 0.24171E-03
  rms(prec ) = 0.25894E-03
  weight for this iteration     100.00

 eigenvalues of (default mixing * dielectric matrix)
  average eigenvalue GAMMA=   2.8331
  7.3500  4.4744  3.6634  2.4041  2.4041  2.2125  1.0620  1.0107  0.9170

 Free energy of the ion-electron system (eV)
  ---------------------------------------------------
  alpha Z        PSCENC =         0.00284530
  Ewald energy   TEWEN  =        17.40483781
  -Hartree energ DENC   =       -33.63529015
  -exchange      EXHF   =         0.00000000
  -V(xc)+E(xc)   XCENC  =         5.33054290
  PAW double counting   =        25.56655530      -25.61717891
  entropy T*S    EENTRO =         0.00579791
  eigenvalues    EBANDS =       -20.76478044
  atomic energy  EATOM  =        24.95726533
  Solvation  Ediel_sol  =         0.00000000
  ---------------------------------------------------
  free energy    TOTEN  =        -6.74940495 eV

  energy without entropy =       -6.75520286  energy(sigma->0) =       -6.75133759


--------------------------------------------------------------------------------------------------------




--------------------------------------- Iteration      1(  15)  ---------------------------------------


    POTLOK:  cpu time    0.0100: real time    0.0102
    SETDIJ:  cpu time    0.0010: real time    0.0010
    EDDIAG:  cpu time    0.0368: real time    0.0370
  RMM-DIIS:  cpu time    0.0956: real time    0.0958
    ORTHCH:  cpu time    0.0026: real time    0.0026
       DOS:  cpu time    0.0002: real time    0.0002
    CHARGE:  cpu time    0.0077: real time    0.0077
    MIXING:  cpu time    0.0010: real time    0.0010
    --------------------------------------------
      LOOP:  cpu time    0.1546: real time    0.1553

 eigenvalue-minimisations  :   150
 total energy-change (2. order) :-0.4327649E-04  (-0.8510570E-07)
 number of electron       2.0000036 magnetization 
 augmentation part        0.0418942 magnetization 

 Broyden mixing:
  rms(total) = 0.63719E-04    rms(broyden)= 0.63715E-04
  rms(prec ) = 0.80169E-04
  weight for this iteration     100.00

 eigenvalues of (default mixing * dielectric matrix)
  average eigenvalue GAMMA=   2.8608
  7.8177  5.2279  3.6762  3.1289  2.4236  2.2030  1.1447  1.0761  0.9913  0.9182

 Free energy of the ion-electron system (eV)
  ---------------------------------------------------
  alpha Z        PSCENC =         0.00284530
  Ewald energy   TEWEN  =        17.40483781
  -Hartree energ DENC   =       -33.63417324
  -exchange      EXHF   =         0.00000000
  -V(xc)+E(xc)   XCENC  =         5.33022061
  PAW double counting   =        25.56391597      -25.61450103
  entropy T*S    EENTRO =         0.00579791
  eigenvalues    EBANDS =       -20.76565688
  atomic energy  EATOM  =        24.95726533
  Solvation  Ediel_sol  =         0.00000000
  ---------------------------------------------------
  free energy    TOTEN  =        -6.74944823 eV

  energy without entropy =       -6.75524614  energy(sigma->0) =       -6.75138087


--------------------------------------------------------------------------------------------------------




--------------------------------------- Iteration      1(  16)  ---------------------------------------


    POTLOK:  cpu time    0.0100: real time    0.0103
    SETDIJ:  cpu time    0.0009: real time    0.0010
    EDDIAG:  cpu time    0.0367: real time    0.0369
  RMM-DIIS:  cpu time    0.0960: real time    0.0962
    ORTHCH:  cpu time    0.0027: real time    0.0027
       DOS:  cpu time    0.0002: real time    0.0002
    CHARGE:  cpu time    0.0076: real time    0.0076
    MIXING:  cpu time    0.0012: real time    0.0012
    --------------------------------------------
      LOOP:  cpu time    0.1552: real time    0.1560

 eigenvalue-minimisations  :   150
 total energy-change (2. order) :-0.2314310E-04  (-0.3874261E-07)
 number of electron       2.0000036 magnetization 
 augmentation part        0.0418952 magnetization 

 Broyden mixing:
  rms(total) = 0.29605E-04    rms(broyden)= 0.29585E-04
  rms(prec ) = 0.37028E-04
  weight for this iteration     100.00

 eigenvalues of (default mixing * dielectric matrix)
  average eigenvalue GAMMA=   3.0151
  8.2699  5.9273  4.1564  3.5468  2.5380  2.5380  2.1808  1.0497  1.0497  0.9897
  0.9197

 Free energy of the ion-electron system (eV)
  ---------------------------------------------------
  alpha Z        PSCENC =         0.00284530
  Ewald energy   TEWEN  =        17.40483781
  -Hartree energ DENC   =       -33.63354221
  -exchange      EXHF   =         0.00000000
  -V(xc)+E(xc)   XCENC  =         5.33000558
  PAW double counting   =        25.56050943      -25.61109539
  entropy T*S    EENTRO =         0.00579791
  eigenvalues    EBANDS =       -20.76609514
  atomic energy  EATOM  =        24.95726533
  Solvation  Ediel_sol  =         0.00000000
  ---------------------------------------------------
  free energy    TOTEN  =        -6.74947137 eV

  energy without entropy =       -6.75526928  energy(sigma->0) =       -6.75140401


--------------------------------------------------------------------------------------------------------




--------------------------------------- Iteration      1(  17)  ---------------------------------------


    POTLOK:  cpu time    0.0100: real time    0.0102
    SETDIJ:  cpu time    0.0010: real time    0.0010
    EDDIAG:  cpu time    0.0367: real time    0.0369
  RMM-DIIS:  cpu time    0.0947: real time    0.0949
    ORTHCH:  cpu time    0.0027: real time    0.0027
       DOS:  cpu time    0.0002: real time    0.0002
    --------------------------------------------
      LOOP:  cpu time    0.1451: real time    0.1458

 eigenvalue-minimisations  :   140
 total energy-change (2. order) :-0.7557325E-05  ( 0.0000000E+00)
 number of electron       2.0000036 magnetization 
 augmentation part        0.0418952 magnetization 

 Free energy of the ion-electron system (eV)
  ---------------------------------------------------
  alpha Z        PSCENC =         0.00284530
  Ewald energy   TEWEN  =        17.40483781
  -Hartree energ DENC   =       -33.63368482
  -exchange      EXHF   =         0.00000000
  -V(xc)+E(xc)   XCENC  =         5.32999266
  PAW double counting   =        25.55991340      -25.61049643
  entropy T*S    EENTRO =         0.00579791
  eigenvalues    EBANDS =       -20.76595009
  atomic energy  EATOM  =        24.95726533
  Solvation  Ediel_sol  =         0.00000000
  ---------------------------------------------------
  free energy    TOTEN  =        -6.74947893 eV

  energy without entropy =       -6.75527684  energy(sigma->0) =       -6.75141157


--------------------------------------------------------------------------------------------------------




 average (electrostatic) potential at core
  the test charge radii are     0.5201
  (the norm of the test charge is              1.0001)
       1 -41.6846       2 -41.6885
 
 
 
 E-fermi : -10.2988     XC(G=0):  -0.1423     alpha+bet : -0.0161


 k-point     1 :       0.0000    0.0000    0.0000
  band No.  band energies     occupation 
      1     -10.3831      2.00071
      2      -0.1082      0.00000
      3       0.0110      0.00000
      4       0.0712      0.00000
      5       0.3248      0.00000
      6       0.5191      0.00000
      7       0.9828      0.00000
      8       0.9830      0.00000

 k-point     2 :       0.2500   -0.0000    0.0000
  band No.  band energies     occupation 
      1     -10.3829      1.99984
      2      -0.0164      0.00000
      3       0.0911      0.00000
      4       0.1674      0.00000
      5       0.3841      0.00000
      6       0.6119      0.00000
      7       0.6740      0.00000
      8       0.8851      0.00000

 k-point     3 :       0.5000   -0.0000    0.0000
  band No.  band energies     occupation 
      1     -10.3829      1.99981
      2       0.2200      0.00000
      3       0.2430      0.00000
      4       0.2683      0.00000
      5       0.4528      0.00000
      6       0.4602      0.00000
      7       0.4932      0.00000
      8       0.8176      0.00000

 k-point     4 :       0.0000    0.2500    0.0000
  band No.  band energies     occupation 
      1     -10.3829      1.99984
      2      -0.0164      0.00000
      3       0.0909      0.00000
      4       0.1674      0.00000
      5       0.3841      0.00000
      6       0.6119      0.00000
      7       0.6740      0.00000
      8       0.8850      0.00000

 k-point     5 :       0.2500    0.2500    0.0000
  band No.  band energies     occupation 
      1     -10.3829      1.99983
      2      -0.0164      0.00000
      3       0.0912      0.00000
      4       0.1674      0.00000
      5       0.3841      0.00000
      6       0.6116      0.00000
      7       0.6738      0.00000
      8       0.8841      0.00000

 k-point     6 :       0.5000    0.2500    0.0000
  band No.  band energies     occupation 
      1     -10.3830      2.00014
      2       0.1647      0.00000
      3       0.2085      0.00000
      4       0.3602      0.00000
      5       0.4898      0.00000
      6       0.4885      0.00000
      7       0.5450      0.00000
      8       0.7443      0.00000

 k-point     7 :      -0.2500    0.2500    0.0000
  band No.  band energies     occupation 
      1     -10.3830      2.00014
      2       0.1646      0.00000
      3       0.2085      0.00000
      4       0.3601      0.00000
      5       0.4891      0.00000
      6       0.4924      0.00000
      7       0.5427      0.00000
      8       0.7437      0.00000

 k-point     8 :       0.0000    0.5000    0.0000
  band No.  band energies     occupation 
      1     -10.3829      1.99981
      2       0.2200      0.00000
      3       0.2431      0.00000
      4       0.2683      0.00000
      5       0.4533      0.00000
      6       0.4596      0.00000
      7       0.4924      0.00000
      8       0.8176      0.00000

 k-point     9 :       0.2500    0.5000    0.0000
  band No.  band energies     occupation 
      1     -10.3830      2.00014
      2       0.1647      0.00000
      3       0.2085      0.00000
      4       0.3602      0.00000
      5       0.4899      0.00000
      6       0.4885      0.00000
      7       0.5449      0.00000
      8       0.7444      0.00000

 k-point    10 :       0.5000    0.5000    0.0000
  band No.  band energies     occupation 
      1     -10.3829      1.99981
      2       0.2200      0.00000
      3       0.2449      0.00000
      4       0.2657      0.00000
      5       0.4520      0.00000
      6       0.4603      0.00000
      7       0.4915      0.00000
      8       0.8160      0.00000


--------------------------------------------------------------------------------------------------------


 soft charge-density along one line, spin component           1
         0         1         2         3         4         5         6         7         8         9
 total charge-density along one line
 
 pseudopotential strength for first ion, spin component:           1
 -2.344  -4.040   0.000   0.002   0.000
 -4.040  -6.877   0.000   0.006   0.000
  0.000   0.000  -0.341   0.000  -0.000
  0.002   0.006   0.000  -0.334   0.000
  0.000   0.000  -0.000   0.000  -0.341
 total augmentation occupancy for first ion, spin component:           1
  3.163  -0.498  -0.000  -0.394   0.000
 -0.498   0.079   0.000   0.062  -0.000
 -0.000   0.000   0.000   0.000  -0.000
 -0.394   0.062   0.000   0.049  -0.000
  0.000  -0.000  -0.000  -0.000   0.000


------------------------ aborting loop because EDIFF is reached ----------------------------------------


    CHARGE:  cpu time    0.0072: real time    0.0072
    FORLOC:  cpu time    0.0004: real time    0.0004
    FORNL :  cpu time    0.0348: real time    0.0351
    STRESS:  cpu time    0.0138: real time    0.0140
    FORHAR:  cpu time    0.0035: real time    0.0035
    MIXING:  cpu time    0.0013: real time    0.0013
    OFIELD:  cpu time    0.0001: real time    0.0002
 only isotrope contributions calculated
  for stress because ISIF=1 (only pressure is correct)

  FORCE on cell =-STRESS in cart. coord.  units (eV):
  Direction    XX          YY          ZZ          XY          YZ          ZX
  --------------------------------------------------------------------------------------
  Alpha Z     0.00285     0.00285     0.00285
  Ewald       3.26588     3.26588    10.87307     0.00000     0.00000     0.00000
  Hartree    14.43331    14.43334     4.76818    -0.00003     0.00000     0.00000
  E(xc)      -6.00813    -6.00812    -5.78886    -0.00001     0.00000     0.00000
  Local     -27.65134   -27.65148   -17.34434     0.00015    -0.00000    -0.00000
  n-local    -5.80730    -5.80730    -5.80730     0.00000     0.00000     0.00000
  augment     0.25190     0.25190     0.25190     0.00000     0.00000     0.00000
  Kinetic    21.03496    21.03478    13.96207     0.00017     0.00000    -0.00000
  Fock        0.00000     0.00000     0.00000     0.00000     0.00000     0.00000
  -------------------------------------------------------------------------------------
  Total      -0.47787    -0.47815     0.91755     0.00027    -0.00000    -0.00001
  in kB      -0.22355    -0.22368     0.42924     0.00013    -0.00000    -0.00000
  external pressure =       -0.01 kB  Pullay stress =        0.00 kB


 VOLUME and BASIS-vectors are now :
 -----------------------------------------------------------------------------
  energy-cutoff  :      400.00
  volume of cell :     3424.83
      direct lattice vectors                 reciprocal lattice vectors
    11.214359184  0.000000000  0.000000000     0.089171390 -0.051483119  0.000000000
     5.607178664  9.711919634  0.000000000     0.000000000  0.102966256  0.000000000
     0.000000000  0.000000000 31.445607950     0.000000000  0.000000000  0.031800943

  length of vectors
    11.214359184 11.214358455 31.445607950     0.102966249  0.102966256  0.031800943


 FORCES acting on ions
    electron-ion (+dipol)            ewald-force                    non-local-force                 convergence-correction
 -----------------------------------------------------------------------------------------------
   0.303E-05 -.556E-04 -.208E+02   0.428E-17 0.566E-17 0.265E+02   -.132E-02 -.211E-02 -.524E+01   -.886E-07 0.686E-07 0.189E-03
   -.161E-04 -.523E-04 0.208E+02   -.565E-17 -.714E-18 -.265E+02   -.188E-02 -.207E-02 0.524E+01   -.902E-07 0.671E-07 -.188E-03
 -----------------------------------------------------------------------------------------------
   -.131E-04 -.108E-03 -.641E-03   -.137E-17 0.495E-17 0.000E+00   -.320E-02 -.418E-02 -.128E-02   -.179E-06 0.136E-06 0.848E-06
 
 
 POSITION                                       TOTAL-FORCE (eV/Angst)
 -----------------------------------------------------------------------------------
      5.00000      5.00000      5.36858         0.000290     -0.000019      0.488124
      5.00000      5.00000      4.63142        -0.000290      0.000019     -0.488124
 -----------------------------------------------------------------------------------
    total drift:                               -0.003215     -0.004290     -0.001923


--------------------------------------------------------------------------------------------------------



  FREE ENERGIE OF THE ION-ELECTRON SYSTEM (eV)
  ---------------------------------------------------
  free  energy   TOTEN  =        -6.74947893 eV

  energy  without entropy=       -6.75527684  energy(sigma->0) =       -6.75141157
 


--------------------------------------------------------------------------------------------------------


    POTLOK:  cpu time    0.0112: real time    0.0113


--------------------------------------------------------------------------------------------------------


 stress matrix after NEB project (eV)
     -0.47787      0.00027     -0.00001
      0.00027     -0.47815     -0.00000
     -0.00001     -0.00000      0.91755
  FORCES: max atom, RMS     0.488124    0.488124
  FORCE total and by dimension    0.690312    0.488124
  Stress total and by dimension    1.139688    0.917555


--------------------------------------------------------------------------------------------------------


    WAVPRE:  cpu time    0.0018: real time    0.0027
    FEWALD:  cpu time    0.0001: real time    0.0001

 real space projection operators:
  total allocation   :         54.65 KBytes
  max/ min on nodes  :          7.50          6.25

    ORTHCH:  cpu time    0.0150: real time    0.0151
     LOOP+:  cpu time    2.8283: real time    2.8583


--------------------------------------- Iteration      2(   1)  ---------------------------------------


    POTLOK:  cpu time    0.0110: real time    0.0140
    SETDIJ:  cpu time    0.0009: real time    0.0009
     EDDAV:  cpu time    0.1333: real time    0.1338
       DOS:  cpu time    0.0002: real time    0.0002
    CHARGE:  cpu time    0.0076: real time    0.0076
    MIXING:  cpu time    0.0006: real time    0.0006
    --------------------------------------------
      LOOP:  cpu time    0.1536: real time    0.1571

 eigenvalue-minimisations  :   176
 total energy-change (2. order) : 0.1132124E-01  (-0.6564758E-01)
 number of electron       2.0000032 magnetization 
 augmentation part        0.0391162 magnetization 

 Broyden mixing:
  rms(total) = 0.39143E-01    rms(broyden)= 0.39098E-01
  rms(prec ) = 0.39993E-01
  weight for this iteration     100.00

 Free energy of the ion-electron system (eV)
  ---------------------------------------------------
  alpha Z        PSCENC =         0.00284530
  Ewald energy   TEWEN  =        16.22965079
  -Hartree energ DENC   =       -33.23079277
  -exchange      EXHF   =         0.00000000
  -V(xc)+E(xc)   XCENC  =         5.28087557
  PAW double counting   =        25.56215446      -25.61274451
  entropy T*S    EENTRO =         0.00579791
  eigenvalues    EBANDS =       -19.93320223
  atomic energy  EATOM  =        24.95726533
  Solvation  Ediel_sol  =         0.00000000
  ---------------------------------------------------
  free energy    TOTEN  =        -6.73815013 eV

  energy without entropy =       -6.74394805  energy(sigma->0) =       -6.74008277


--------------------------------------------------------------------------------------------------------




--------------------------------------- Iteration      2(   2)  ---------------------------------------


    POTLOK:  cpu time    0.0100: real time    0.0102
    SETDIJ:  cpu time    0.0009: real time    0.0009
    EDDIAG:  cpu time    0.0367: real time    0.0369
  RMM-DIIS:  cpu time    0.1005: real time    0.1009
    ORTHCH:  cpu time    0.0027: real time    0.0027
       DOS:  cpu time    0.0002: real time    0.0002
    CHARGE:  cpu time    0.0075: real time    0.0075
    MIXING:  cpu time    0.0005: real time    0.0005
    --------------------------------------------
      LOOP:  cpu time    0.1588: real time    0.1597

 eigenvalue-minimisations  :   160
 total energy-change (2. order) : 0.2356798E-02  (-0.2790856E-03)
 number of electron       2.0000032 magnetization 
 augmentation part        0.0392813 magnetization 

 Broyden mixing:
  rms(total) = 0.21245E-01    rms(broyden)= 0.21242E-01
  rms(prec ) = 0.21710E-01
  weight for this iteration     100.00

 eigenvalues of (default mixing * dielectric matrix)
  average eigenvalue GAMMA=   2.1707
  2.1707

 Free energy of the ion-electron system (eV)
  ---------------------------------------------------
  alpha Z        PSCENC =         0.00284530
  Ewald energy   TEWEN  =        16.22965079
  -Hartree energ DENC   =       -33.02602138
  -exchange      EXHF   =         0.00000000
  -V(xc)+E(xc)   XCENC  =         5.25189687
  PAW double counting   =        24.19046211      -24.23829807
  entropy T*S    EENTRO =         0.00579791
  eigenvalues    EBANDS =       -20.10939220
  atomic energy  EATOM  =        24.95726533
  Solvation  Ediel_sol  =         0.00000000
  ---------------------------------------------------
  free energy    TOTEN  =        -6.73579334 eV

  energy without entropy =       -6.74159125  energy(sigma->0) =       -6.73772597


--------------------------------------------------------------------------------------------------------




--------------------------------------- Iteration      2(   3)  ---------------------------------------


    POTLOK:  cpu time    0.0099: real time    0.0102
    SETDIJ:  cpu time    0.0009: real time    0.0009
    EDDIAG:  cpu time    0.0367: real time    0.0369
  RMM-DIIS:  cpu time    0.0982: real time    0.0990
    ORTHCH:  cpu time    0.0026: real time    0.0026
       DOS:  cpu time    0.0002: real time    0.0002
    CHARGE:  cpu time    0.0075: real time    0.0075
    MIXING:  cpu time    0.0005: real time    0.0005
    --------------------------------------------
      LOOP:  cpu time    0.1564: real time    0.1577

 eigenvalue-minimisations  :   160
 total energy-change (2. order) : 0.7218303E-03  (-0.2396407E-03)
 number of electron       2.0000033 magnetization 
 augmentation part        0.0394697 magnetization 

 Broyden mixing:
  rms(total) = 0.15453E-02    rms(broyden)= 0.15426E-02
  rms(prec ) = 0.15837E-02
  weight for this iteration     100.00

 eigenvalues of (default mixing * dielectric matrix)
  average eigenvalue GAMMA=   1.9380
  1.7614  2.1146

 Free energy of the ion-electron system (eV)
  ---------------------------------------------------
  alpha Z        PSCENC =         0.00284530
  Ewald energy   TEWEN  =        16.22965079
  -Hartree energ DENC   =       -32.79101993
  -exchange      EXHF   =         0.00000000
  -V(xc)+E(xc)   XCENC  =         5.21871917
  PAW double counting   =        22.53103645      -22.57569358
  entropy T*S    EENTRO =         0.00579791
  eigenvalues    EBANDS =       -20.31367294
  atomic energy  EATOM  =        24.95726533
  Solvation  Ediel_sol  =         0.00000000
  ---------------------------------------------------
  free energy    TOTEN  =        -6.73507151 eV

  energy without entropy =       -6.74086942  energy(sigma->0) =       -6.73700414


--------------------------------------------------------------------------------------------------------




--------------------------------------- Iteration      2(   4)  ---------------------------------------


    POTLOK:  cpu time    0.0100: real time    0.0102
    SETDIJ:  cpu time    0.0009: real time    0.0009
    EDDIAG:  cpu time    0.0365: real time    0.0367
  RMM-DIIS:  cpu time    0.0960: real time    0.0962
    ORTHCH:  cpu time    0.0027: real time    0.0027
       DOS:  cpu time    0.0001: real time    0.0001
    CHARGE:  cpu time    0.0077: real time    0.0077
    MIXING:  cpu time    0.0006: real time    0.0006
    --------------------------------------------
      LOOP:  cpu time    0.1544: real time    0.1551

 eigenvalue-minimisations  :   160
 total energy-change (2. order) :-0.5386133E-04  (-0.2712787E-05)
 number of electron       2.0000033 magnetization 
 augmentation part        0.0394769 magnetization 

 Broyden mixing:
  rms(total) = 0.63207E-03    rms(broyden)= 0.63162E-03
  rms(prec ) = 0.66530E-03
  weight for this iteration     100.00

 eigenvalues of (default mixing * dielectric matrix)
  average eigenvalue GAMMA=   1.9873
  1.0013  2.2727  2.6879

 Free energy of the ion-electron system (eV)
  ---------------------------------------------------
  alpha Z        PSCENC =         0.00284530
  Ewald energy   TEWEN  =        16.22965079
  -Hartree energ DENC   =       -32.79135420
  -exchange      EXHF   =         0.00000000
  -V(xc)+E(xc)   XCENC  =         5.21905151
  PAW double counting   =        22.44430544      -22.48890811
  entropy T*S    EENTRO =         0.00579791
  eigenvalues    EBANDS =       -20.31377934
  atomic energy  EATOM  =        24.95726533
  Solvation  Ediel_sol  =         0.00000000
  ---------------------------------------------------
  free energy    TOTEN  =        -6.73512537 eV

  energy without entropy =       -6.74092328  energy(sigma->0) =       -6.73705800


--------------------------------------------------------------------------------------------------------




--------------------------------------- Iteration      2(   5)  ---------------------------------------


    POTLOK:  cpu time    0.0101: real time    0.0103
    SETDIJ:  cpu time    0.0009: real time    0.0009
    EDDIAG:  cpu time    0.0367: real time    0.0369
  RMM-DIIS:  cpu time    0.0984: real time    0.0987
    ORTHCH:  cpu time    0.0036: real time    0.0036
       DOS:  cpu time    0.0001: real time    0.0001
    CHARGE:  cpu time    0.0078: real time    0.0078
    MIXING:  cpu time    0.0007: real time    0.0007
    --------------------------------------------
      LOOP:  cpu time    0.1584: real time    0.1591

 eigenvalue-minimisations  :   150
 total energy-change (2. order) :-0.1901526E-04  (-0.2958547E-06)
 number of electron       2.0000033 magnetization 
 augmentation part        0.0394769 magnetization 

 Broyden mixing:
  rms(total) = 0.14972E-03    rms(broyden)= 0.14964E-03
  rms(prec ) = 0.18536E-03
  weight for this iteration     100.00

 eigenvalues of (default mixing * dielectric matrix)
  average eigenvalue GAMMA=   2.0328
  0.9974  2.7335  2.2002  2.2002

 Free energy of the ion-electron system (eV)
  ---------------------------------------------------
  alpha Z        PSCENC =         0.00284530
  Ewald energy   TEWEN  =        16.22965079
  -Hartree energ DENC   =       -32.79179698
  -exchange      EXHF   =         0.00000000
  -V(xc)+E(xc)   XCENC  =         5.21938234
  PAW double counting   =        22.39499049      -22.43957079
  entropy T*S    EENTRO =         0.00579791
  eigenvalues    EBANDS =       -20.31370877
  atomic energy  EATOM  =        24.95726533
  Solvation  Ediel_sol  =         0.00000000
  ---------------------------------------------------
  free energy    TOTEN  =        -6.73514438 eV

  energy without entropy =       -6.74094229  energy(sigma->0) =       -6.73707702


--------------------------------------------------------------------------------------------------------




--------------------------------------- Iteration      2(   6)  ---------------------------------------


    POTLOK:  cpu time    0.0125: real time    0.0171
    SETDIJ:  cpu time    0.0033: real time    0.0033
    EDDIAG:  cpu time    0.0365: real time    0.0366
  RMM-DIIS:  cpu time    0.0983: real time    0.0985
    ORTHCH:  cpu time    0.0026: real time    0.0026
       DOS:  cpu time    0.0002: real time    0.0001
    --------------------------------------------
      LOOP:  cpu time    0.1533: real time    0.1583

 eigenvalue-minimisations  :   150
 total energy-change (2. order) :-0.8735309E-05  (-0.1379125E-06)
 number of electron       2.0000033 magnetization 
 augmentation part        0.0394769 magnetization 

 Free energy of the ion-electron system (eV)
  ---------------------------------------------------
  alpha Z        PSCENC =         0.00284530
  Ewald energy   TEWEN  =        16.22965079
  -Hartree energ DENC   =       -32.78649736
  -exchange      EXHF   =         0.00000000
  -V(xc)+E(xc)   XCENC  =         5.21874063
  PAW double counting   =        22.38659824      -22.43115112
  entropy T*S    EENTRO =         0.00579791
  eigenvalues    EBANDS =       -20.31840285
  atomic energy  EATOM  =        24.95726533
  Solvation  Ediel_sol  =         0.00000000
  ---------------------------------------------------
  free energy    TOTEN  =        -6.73515312 eV

  energy without entropy =       -6.74095103  energy(sigma->0) =       -6.73708575


--------------------------------------------------------------------------------------------------------




 average (electrostatic) potential at core
  the test charge radii are     0.5201
  (the norm of the test charge is              1.0001)
       1 -41.4102       2 -41.4141
 
 
 
 E-fermi : -10.0750     XC(G=0):  -0.1290     alpha+bet : -0.0161


 k-point     1 :       0.0000    0.0000    0.0000
  band No.  band energies     occupation 
      1     -10.1594      2.00067
      2      -0.0917      0.00000
      3      -0.0272      0.00000
      4       0.0843      0.00000
      5       0.2685      0.00000
      6       0.5508      0.00000
      7       0.7929      0.00000
      8       0.9746      0.00000

 k-point     2 :       0.2500   -0.0000    0.0000
  band No.  band energies     occupation 
      1     -10.1592      1.99982
      2      -0.0005      0.00000
      3       0.0327      0.00000
      4       0.1802      0.00000
      5       0.3342      0.00000
      6       0.6400      0.00000
      7       0.6837      0.00000
      8       0.8838      0.00000

 k-point     3 :       0.5000   -0.0000    0.0000
  band No.  band energies     occupation 
      1     -10.1592      1.99981
      2       0.1074      0.00000
      3       0.2505      0.00000
      4       0.2860      0.00000
      5       0.4666      0.00000
      6       0.4697      0.00000
      7       0.5206      0.00000
      8       0.8167      0.00000

 k-point     4 :       0.0000    0.2500    0.0000
  band No.  band energies     occupation 
      1     -10.1592      1.99982
      2      -0.0005      0.00000
      3       0.0327      0.00000
      4       0.1802      0.00000
      5       0.3342      0.00000
      6       0.6400      0.00000
      7       0.6837      0.00000
      8       0.8837      0.00000

 k-point     5 :       0.2500    0.2500    0.0000
  band No.  band energies     occupation 
      1     -10.1592      1.99982
      2      -0.0005      0.00000
      3       0.0327      0.00000
      4       0.1802      0.00000
      5       0.3342      0.00000
      6       0.6391      0.00000
      7       0.6838      0.00000
      8       0.8834      0.00000

 k-point     6 :       0.5000    0.2500    0.0000
  band No.  band energies     occupation 
      1     -10.1592      2.00016
      2       0.1038      0.00000
      3       0.1786      0.00000
      4       0.3720      0.00000
      5       0.4764      0.00000
      6       0.4962      0.00000
      7       0.5610      0.00000
      8       0.7575      0.00000

 k-point     7 :      -0.2500    0.2500    0.0000
  band No.  band energies     occupation 
      1     -10.1592      2.00016
      2       0.1038      0.00000
      3       0.1785      0.00000
      4       0.3720      0.00000
      5       0.4764      0.00000
      6       0.4987      0.00000
      7       0.5589      0.00000
      8       0.7572      0.00000

 k-point     8 :       0.0000    0.5000    0.0000
  band No.  band energies     occupation 
      1     -10.1592      1.99981
      2       0.1074      0.00000
      3       0.2504      0.00000
      4       0.2861      0.00000
      5       0.4666      0.00000
      6       0.4697      0.00000
      7       0.5206      0.00000
      8       0.8141      0.00000

 k-point     9 :       0.2500    0.5000    0.0000
  band No.  band energies     occupation 
      1     -10.1592      2.00016
      2       0.1038      0.00000
      3       0.1786      0.00000
      4       0.3720      0.00000
      5       0.4764      0.00000
      6       0.4963      0.00000
      7       0.5608      0.00000
      8       0.7575      0.00000

 k-point    10 :       0.5000    0.5000    0.0000
  band No.  band energies     occupation 
      1     -10.1592      1.99981
      2       0.1073      0.00000
      3       0.2522      0.00000
      4       0.2839      0.00000
      5       0.4660      0.00000
      6       0.4701      0.00000
      7       0.5206      0.00000
      8       0.7617      0.00000


--------------------------------------------------------------------------------------------------------


 soft charge-density along one line, spin component           1
         0         1         2         3         4         5         6         7         8         9
 total charge-density along one line
 
 pseudopotential strength for first ion, spin component:           1
 -2.342  -4.036   0.000   0.002   0.000
 -4.036  -6.868   0.000   0.005   0.000
  0.000   0.000  -0.342   0.000  -0.000
  0.002   0.005   0.000  -0.337   0.000
  0.000   0.000  -0.000   0.000  -0.342
 total augmentation occupancy for first ion, spin component:           1
  3.056  -0.496  -0.000  -0.340  -0.000
 -0.496   0.081   0.000   0.055   0.000
 -0.000   0.000   0.000   0.000   0.000
 -0.340   0.055   0.000   0.038   0.000
 -0.000   0.000   0.000   0.000   0.000


------------------------ aborting loop because EDIFF is reached ----------------------------------------


    CHARGE:  cpu time    0.0076: real time    0.0076
    FORLOC:  cpu time    0.0004: real time    0.0004
    FORNL :  cpu time    0.0346: real time    0.0347
    STRESS:  cpu time    0.0132: real time    0.0132
    FORHAR:  cpu time    0.0030: real time    0.0030
    MIXING:  cpu time    0.0008: real time    0.0008
    OFIELD:  cpu time    0.0000: real time    0.0000
 only isotrope contributions calculated
  for stress because ISIF=1 (only pressure is correct)

  FORCE on cell =-STRESS in cart. coord.  units (eV):
  Direction    XX          YY          ZZ          XY          YZ          ZX
  --------------------------------------------------------------------------------------
  Alpha Z     0.00285     0.00285     0.00285
  Ewald       3.26176     3.26176     9.70613     0.00000    -0.00004     0.00065
  Hartree    14.10294    14.10297     4.57888    -0.00003    -0.00001     0.00008
  E(xc)      -5.88189    -5.88188    -5.65850    -0.00001    -0.00000     0.00001
  Local     -27.06550   -27.06562   -16.96352     0.00013     0.00004    -0.00048
  n-local    -5.47977    -5.47977    -5.47977     0.00000     0.00000     0.00000
  augment     0.24009     0.24009     0.24009     0.00000     0.00000     0.00000
  Kinetic    20.40358    20.40339    13.21873     0.00014     0.00002    -0.00026
  Fock        0.00000     0.00000     0.00000     0.00000     0.00000     0.00000
  -------------------------------------------------------------------------------------
  Total      -0.41594    -0.41622    -0.35511     0.00024     0.00000     0.00000
  in kB      -0.19458    -0.19471    -0.16613     0.00011     0.00000     0.00000
  external pressure =       -0.19 kB  Pullay stress =        0.00 kB


 VOLUME and BASIS-vectors are now :
 -----------------------------------------------------------------------------
  energy-cutoff  :      400.00
  volume of cell :     3424.83
      direct lattice vectors                 reciprocal lattice vectors
    11.214359184  0.000000000  0.000000000     0.089171390 -0.051483119  0.000000000
     5.607178664  9.711919634  0.000000000     0.000000000  0.102966256  0.000000000
     0.000000000  0.000000000 31.445607950     0.000000000  0.000000000  0.031800943

  length of vectors
    11.214359184 11.214358455 31.445607950     0.102966249  0.102966256  0.031800943


 FORCES acting on ions
    electron-ion (+dipol)            ewald-force                    non-local-force                 convergence-correction
 -----------------------------------------------------------------------------------------------
   -.722E-03 0.114E-04 -.199E+02   0.835E-03 -.536E-04 0.235E+02   -.196E-02 -.200E-02 -.460E+01   -.523E-07 0.111E-06 0.260E-03
   0.705E-03 -.636E-04 0.199E+02   -.835E-03 0.536E-04 -.235E+02   -.145E-02 -.124E-02 0.460E+01   -.750E-07 0.118E-06 -.261E-03
 -----------------------------------------------------------------------------------------------
   -.166E-04 -.523E-04 -.526E-03   -.130E-17 0.495E-17 0.000E+00   -.340E-02 -.323E-02 -.748E-03   -.127E-06 0.229E-06 -.703E-06
 
 
 POSITION                                       TOTAL-FORCE (eV/Angst)
 -----------------------------------------------------------------------------------
      5.00001      5.00000      5.39213        -0.000135     -0.000396     -1.019864
      4.99999      5.00000      4.60787         0.000135      0.000396      1.019864
 -----------------------------------------------------------------------------------
    total drift:                               -0.003421     -0.003283     -0.001274


--------------------------------------------------------------------------------------------------------



  FREE ENERGIE OF THE ION-ELECTRON SYSTEM (eV)
  ---------------------------------------------------
  free  energy   TOTEN  =        -6.73515312 eV

[...]
    EDDIAG:  cpu time    0.0369: real time    0.0370
  RMM-DIIS:  cpu time    0.0970: real time    0.0972
    ORTHCH:  cpu time    0.0027: real time    0.0027
       DOS:  cpu time    0.0001: real time    0.0001
    CHARGE:  cpu time    0.0078: real time    0.0079
    MIXING:  cpu time    0.0005: real time    0.0005
    --------------------------------------------
      LOOP:  cpu time    0.1565: real time    0.1570

 eigenvalue-minimisations  :   160
 total energy-change (2. order) : 0.1116021E-02  (-0.1245948E-03)
 number of electron       2.0000035 magnetization 
 augmentation part        0.0412859 magnetization 

 Broyden mixing:
  rms(total) = 0.15071E-01    rms(broyden)= 0.15069E-01
  rms(prec ) = 0.15402E-01
  weight for this iteration     100.00

 eigenvalues of (default mixing * dielectric matrix)
  average eigenvalue GAMMA=   2.2635
  2.2635

 Free energy of the ion-electron system (eV)
  ---------------------------------------------------
  alpha Z        PSCENC =         0.00284530
  Ewald energy   TEWEN  =        17.04628075
  -Hartree energ DENC   =       -33.20691905
  -exchange      EXHF   =         0.00000000
  -V(xc)+E(xc)   XCENC  =         5.27286360
  PAW double counting   =        23.33131736      -23.37769221
  entropy T*S    EENTRO =         0.00579791
  eigenvalues    EBANDS =       -20.78486075
  atomic energy  EATOM  =        24.95726533
  Solvation  Ediel_sol  =         0.00000000
  ---------------------------------------------------
  free energy    TOTEN  =        -6.75310176 eV

  energy without entropy =       -6.75889967  energy(sigma->0) =       -6.75503440


--------------------------------------------------------------------------------------------------------




--------------------------------------- Iteration      3(   3)  ---------------------------------------


    POTLOK:  cpu time    0.0105: real time    0.0107
    SETDIJ:  cpu time    0.0009: real time    0.0009
    EDDIAG:  cpu time    0.0416: real time    0.0417
  RMM-DIIS:  cpu time    0.0975: real time    0.0977
    ORTHCH:  cpu time    0.0027: real time    0.0027
       DOS:  cpu time    0.0001: real time    0.0001
    CHARGE:  cpu time    0.0090: real time    0.0090
    MIXING:  cpu time    0.0005: real time    0.0005
    --------------------------------------------
      LOOP:  cpu time    0.1629: real time    0.1635

 eigenvalue-minimisations  :   160
 total energy-change (2. order) : 0.3712327E-03  (-0.1284555E-03)
 number of electron       2.0000035 magnetization 
 augmentation part        0.0411449 magnetization 

 Broyden mixing:
  rms(total) = 0.12048E-02    rms(broyden)= 0.12031E-02
  rms(prec ) = 0.12399E-02
  weight for this iteration     100.00

 eigenvalues of (default mixing * dielectric matrix)
  average eigenvalue GAMMA=   1.6258
  1.1140  2.1376

 Free energy of the ion-electron system (eV)
  ---------------------------------------------------
  alpha Z        PSCENC =         0.00284530
  Ewald energy   TEWEN  =        17.04628075
  -Hartree energ DENC   =       -33.38442926
  -exchange      EXHF   =         0.00000000
  -V(xc)+E(xc)   XCENC  =         5.29788198
  PAW double counting   =        24.55441061      -24.60314640
  entropy T*S    EENTRO =         0.00579791
  eigenvalues    EBANDS =       -20.62963675
  atomic energy  EATOM  =        24.95726533
  Solvation  Ediel_sol  =         0.00000000
  ---------------------------------------------------
  free energy    TOTEN  =        -6.75273053 eV

  energy without entropy =       -6.75852844  energy(sigma->0) =       -6.75466316


--------------------------------------------------------------------------------------------------------




--------------------------------------- Iteration      3(   4)  ---------------------------------------


    POTLOK:  cpu time    0.0106: real time    0.0107
    SETDIJ:  cpu time    0.0010: real time    0.0010
    EDDIAG:  cpu time    0.0367: real time    0.0368
  RMM-DIIS:  cpu time    0.0976: real time    0.0978
    ORTHCH:  cpu time    0.0028: real time    0.0028
       DOS:  cpu time    0.0001: real time    0.0001
    CHARGE:  cpu time    0.0077: real time    0.0078
    MIXING:  cpu time    0.0005: real time    0.0005
    --------------------------------------------
      LOOP:  cpu time    0.1570: real time    0.1575

 eigenvalue-minimisations  :   160
 total energy-change (2. order) :-0.1390771E-04  (-0.7277893E-06)
 number of electron       2.0000035 magnetization 
 augmentation part        0.0411448 magnetization 

 Broyden mixing:
  rms(total) = 0.62889E-03    rms(broyden)= 0.62875E-03
  rms(prec ) = 0.65261E-03
  weight for this iteration     100.00

 eigenvalues of (default mixing * dielectric matrix)
  average eigenvalue GAMMA=   2.0340
  0.9862  2.3951  2.7206

 Free energy of the ion-electron system (eV)
  ---------------------------------------------------
  alpha Z        PSCENC =         0.00284530
  Ewald energy   TEWEN  =        17.04628075
  -Hartree energ DENC   =       -33.37628332
  -exchange      EXHF   =         0.00000000
  -V(xc)+E(xc)   XCENC  =         5.29659524
  PAW double counting   =        24.53601518      -24.58466235
  entropy T*S    EENTRO =         0.00579791
  eigenvalues    EBANDS =       -20.63659847
  atomic energy  EATOM  =        24.95726533
  Solvation  Ediel_sol  =         0.00000000
  ---------------------------------------------------
  free energy    TOTEN  =        -6.75274443 eV

  energy without entropy =       -6.75854234  energy(sigma->0) =       -6.75467707


--------------------------------------------------------------------------------------------------------




--------------------------------------- Iteration      3(   5)  ---------------------------------------


    POTLOK:  cpu time    0.0109: real time    0.0110
    SETDIJ:  cpu time    0.0009: real time    0.0009
    EDDIAG:  cpu time    0.0367: real time    0.0367
  RMM-DIIS:  cpu time    0.0960: real time    0.0962
    ORTHCH:  cpu time    0.0026: real time    0.0026
       DOS:  cpu time    0.0002: real time    0.0002
    CHARGE:  cpu time    0.0074: real time    0.0074
    MIXING:  cpu time    0.0006: real time    0.0006
    --------------------------------------------
      LOOP:  cpu time    0.1551: real time    0.1557

 eigenvalue-minimisations  :   150
 total energy-change (2. order) :-0.1417996E-04  (-0.2565651E-06)
 number of electron       2.0000035 magnetization 
 augmentation part        0.0411474 magnetization 

 Broyden mixing:
  rms(total) = 0.29589E-03    rms(broyden)= 0.29589E-03
  rms(prec ) = 0.31004E-03
  weight for this iteration     100.00

 eigenvalues of (default mixing * dielectric matrix)
  average eigenvalue GAMMA=   1.7332
  2.6832  2.0860  1.0819  1.0819

 Free energy of the ion-electron system (eV)
  ---------------------------------------------------
  alpha Z        PSCENC =         0.00284530
  Ewald energy   TEWEN  =        17.04628075
  -Hartree energ DENC   =       -33.37418274
  -exchange      EXHF   =         0.00000000
  -V(xc)+E(xc)   XCENC  =         5.29601833
  PAW double counting   =        24.58632616      -24.63498314
  entropy T*S    EENTRO =         0.00579791
  eigenvalues    EBANDS =       -20.63812652
  atomic energy  EATOM  =        24.95726533
  Solvation  Ediel_sol  =         0.00000000
  ---------------------------------------------------
  free energy    TOTEN  =        -6.75275861 eV

  energy without entropy =       -6.75855652  energy(sigma->0) =       -6.75469125


--------------------------------------------------------------------------------------------------------




--------------------------------------- Iteration      3(   6)  ---------------------------------------


    POTLOK:  cpu time    0.0105: real time    0.0107
    SETDIJ:  cpu time    0.0009: real time    0.0009
    EDDIAG:  cpu time    0.0366: real time    0.0367
  RMM-DIIS:  cpu time    0.0957: real time    0.0959
    ORTHCH:  cpu time    0.0025: real time    0.0025
       DOS:  cpu time    0.0001: real time    0.0001
    --------------------------------------------
      LOOP:  cpu time    0.1464: real time    0.1469

 eigenvalue-minimisations  :   150
 total energy-change (2. order) :-0.3243376E-05  (-0.3451349E-07)
 number of electron       2.0000035 magnetization 
 augmentation part        0.0411474 magnetization 

 Free energy of the ion-electron system (eV)
  ---------------------------------------------------
  alpha Z        PSCENC =         0.00284530
  Ewald energy   TEWEN  =        17.04628075
  -Hartree energ DENC   =       -33.37821815
  -exchange      EXHF   =         0.00000000
  -V(xc)+E(xc)   XCENC  =         5.29658023
  PAW double counting   =        24.59901466      -24.64770792
  entropy T*S    EENTRO =         0.00579791
  eigenvalues    EBANDS =       -20.63461997
  atomic energy  EATOM  =        24.95726533
  Solvation  Ediel_sol  =         0.00000000
  ---------------------------------------------------
  free energy    TOTEN  =        -6.75276186 eV

  energy without entropy =       -6.75855977  energy(sigma->0) =       -6.75469449


--------------------------------------------------------------------------------------------------------




 average (electrostatic) potential at core
  the test charge radii are     0.5201
  (the norm of the test charge is              1.0001)
       1 -41.5958       2 -41.6000
 
 
 
 E-fermi : -10.2331     XC(G=0):  -0.1546     alpha+bet : -0.0161


 k-point     1 :       0.0000    0.0000    0.0000
  band No.  band energies     occupation 
      1     -10.3175      2.00070
      2      -0.1563      0.00000
      3       0.0050      0.00000
      4       0.0680      0.00000
      5       0.3279      0.00000
      6       0.5238      0.00000
      7       0.8143      0.00000
      8       0.9435      0.00000

 k-point     2 :       0.2500   -0.0000    0.0000
  band No.  band energies     occupation 
      1     -10.3173      1.99983
      2      -0.0661      0.00000
      3       0.0822      0.00000
      4       0.1657      0.00000
      5       0.3906      0.00000
      6       0.6022      0.00000
      7       0.6386      0.00000
      8       0.8328      0.00000

 k-point     3 :       0.5000   -0.0000    0.0000
  band No.  band energies     occupation 
      1     -10.3173      1.99981
      2       0.1878      0.00000
      3       0.2024      0.00000
      4       0.2147      0.00000
      5       0.4581      0.00000
      6       0.4615      0.00000
      7       0.5080      0.00000
      8       0.6305      0.00000

 k-point     4 :       0.0000    0.2500    0.0000
  band No.  band energies     occupation 
      1     -10.3173      1.99983
      2      -0.0661      0.00000
      3       0.0822      0.00000
      4       0.1657      0.00000
      5       0.3906      0.00000
      6       0.6023      0.00000
      7       0.6385      0.00000
      8       0.8328      0.00000

 k-point     5 :       0.2500    0.2500    0.0000
  band No.  band energies     occupation 
      1     -10.3173      1.99983
      2      -0.0661      0.00000
      3       0.0822      0.00000
      4       0.1657      0.00000
      5       0.3906      0.00000
      6       0.6024      0.00000
      7       0.6387      0.00000
      8       0.8319      0.00000

 k-point     6 :       0.5000    0.2500    0.0000
  band No.  band energies     occupation 
      1     -10.3173      2.00015
      2       0.1127      0.00000
      3       0.1933      0.00000
      4       0.3607      0.00000
      5       0.4520      0.00000
      6       0.4686      0.00000
      7       0.5007      0.00000
      8       0.7533      0.00000

 k-point     7 :      -0.2500    0.2500    0.0000
  band No.  band energies     occupation 
      1     -10.3173      2.00015
      2       0.1127      0.00000
      3       0.1933      0.00000
      4       0.3607      0.00000
      5       0.4520      0.00000
      6       0.4687      0.00000
      7       0.5007      0.00000
      8       0.7535      0.00000

 k-point     8 :       0.0000    0.5000    0.0000
  band No.  band energies     occupation 
      1     -10.3173      1.99981
      2       0.1879      0.00000
      3       0.2024      0.00000
      4       0.2146      0.00000
      5       0.4581      0.00000
      6       0.4615      0.00000
      7       0.5080      0.00000
      8       0.6305      0.00000

 k-point     9 :       0.2500    0.5000    0.0000
  band No.  band energies     occupation 
      1     -10.3173      2.00015
      2       0.1127      0.00000
      3       0.1933      0.00000
      4       0.3607      0.00000
      5       0.4521      0.00000
      6       0.4685      0.00000
      7       0.5007      0.00000
      8       0.7533      0.00000

 k-point    10 :       0.5000    0.5000    0.0000
  band No.  band energies     occupation 
      1     -10.3173      1.99981
      2       0.1878      0.00000
      3       0.2025      0.00000
      4       0.2148      0.00000
      5       0.4581      0.00000
      6       0.4616      0.00000
      7       0.5079      0.00000
      8       0.6305      0.00000


--------------------------------------------------------------------------------------------------------


 soft charge-density along one line, spin component           1
         0         1         2         3         4         5         6         7         8         9
 total charge-density along one line
 
 pseudopotential strength for first ion, spin component:           1
 -2.344  -4.039   0.000   0.002   0.000
 -4.039  -6.874   0.000   0.005   0.000
  0.000   0.000  -0.341   0.000  -0.000
  0.002   0.005   0.000  -0.335   0.000
  0.000   0.000  -0.000   0.000  -0.341
 total augmentation occupancy for first ion, spin component:           1
  3.136  -0.500  -0.000  -0.377   0.000
 -0.500   0.080   0.000   0.060  -0.000
 -0.000   0.000   0.000   0.000  -0.000
 -0.377   0.060   0.000   0.045  -0.000
  0.000  -0.000  -0.000  -0.000   0.000


------------------------ aborting loop because EDIFF is reached ----------------------------------------


    CHARGE:  cpu time    0.0076: real time    0.0076
    FORLOC:  cpu time    0.0003: real time    0.0003
    FORNL :  cpu time    0.0345: real time    0.0348
    STRESS:  cpu time    0.0131: real time    0.0132
    FORHAR:  cpu time    0.0027: real time    0.0027
    MIXING:  cpu time    0.0007: real time    0.0008
    OFIELD:  cpu time    0.0000: real time    0.0000
 only isotrope contributions calculated
  for stress because ISIF=1 (only pressure is correct)

  FORCE on cell =-STRESS in cart. coord.  units (eV):
  Direction    XX          YY          ZZ          XY          YZ          ZX
  --------------------------------------------------------------------------------------
  Alpha Z     0.00285     0.00285     0.00285
  Ewald       3.26470     3.26470    10.51687     0.00000    -0.00001     0.00021
  Hartree    14.33523    14.33526     4.71182    -0.00003    -0.00000     0.00002
  E(xc)      -5.97014    -5.97013    -5.74959    -0.00001    -0.00000     0.00000
  Local     -27.47707   -27.47720   -17.23643     0.00015     0.00001    -0.00015
  n-local    -5.70741    -5.70741    -5.70741     0.00000     0.00000     0.00000
  augment     0.24835     0.24835     0.24835     0.00000     0.00000     0.00000
  Kinetic    20.84590    20.84571    13.73554     0.00016     0.00001    -0.00008
  Fock        0.00000     0.00000     0.00000     0.00000     0.00000     0.00000
  -------------------------------------------------------------------------------------
  Total      -0.45758    -0.45787     0.52201     0.00027    -0.00000     0.00001
  in kB      -0.21406    -0.21419     0.24420     0.00013    -0.00000     0.00000
  external pressure =       -0.06 kB  Pullay stress =        0.00 kB


 VOLUME and BASIS-vectors are now :
 -----------------------------------------------------------------------------
  energy-cutoff  :      400.00
  volume of cell :     3424.83
      direct lattice vectors                 reciprocal lattice vectors
    11.214359184  0.000000000  0.000000000     0.089171390 -0.051483119  0.000000000
     5.607178664  9.711919634  0.000000000     0.000000000  0.102966256  0.000000000
     0.000000000  0.000000000 31.445607950     0.000000000  0.000000000  0.031800943

  length of vectors
    11.214359184 11.214358455 31.445607950     0.102966249  0.102966256  0.031800943


 FORCES acting on ions
    electron-ion (+dipol)            ewald-force                    non-local-force                 convergence-correction
 -----------------------------------------------------------------------------------------------
   -.230E-03 -.328E-04 -.205E+02   0.278E-03 -.179E-04 0.256E+02   -.156E-02 -.218E-02 -.505E+01   -.425E-07 -.121E-06 0.350E-03
   0.202E-03 -.561E-04 0.205E+02   -.278E-03 0.179E-04 -.256E+02   -.164E-02 -.212E-02 0.504E+01   -.670E-07 -.112E-06 -.350E-03
 -----------------------------------------------------------------------------------------------
   -.284E-04 -.889E-04 -.622E-03   -.141E-17 0.495E-17 0.000E+00   -.320E-02 -.430E-02 -.108E-02   -.109E-06 -.233E-06 0.381E-06
 
 
 POSITION                                       TOTAL-FORCE (eV/Angst)
 -----------------------------------------------------------------------------------
      5.00000      5.00000      5.37546         0.000106     -0.000037     -0.001367
      5.00000      5.00000      4.62454        -0.000106      0.000037      0.001367
 -----------------------------------------------------------------------------------
    total drift:                               -0.003227     -0.004386     -0.001700


--------------------------------------------------------------------------------------------------------



  FREE ENERGIE OF THE ION-ELECTRON SYSTEM (eV)
  ---------------------------------------------------
  free  energy   TOTEN  =        -6.75276186 eV

  energy  without entropy=       -6.75855977  energy(sigma->0) =       -6.75469449
 
 d Force = 0.1702214E-01[ 0.456E-04, 0.340E-01]  d Energy = 0.1760874E-01-0.587E-03
 d Force =-0.8173992E+00[-0.853E+00,-0.782E+00]  d Ewald  =-0.8166300E+00-0.769E-03


--------------------------------------------------------------------------------------------------------


    POTLOK:  cpu time    0.0120: real time    0.0120


--------------------------------------------------------------------------------------------------------


 stress matrix after NEB project (eV)
     -0.45758      0.00027      0.00001
      0.00027     -0.45787     -0.00000
      0.00001     -0.00000      0.52201
  FORCES: max atom, RMS     0.001372    0.001372
  FORCE total and by dimension    0.001940    0.001367
  Stress total and by dimension    0.831572    0.522010


--------------------------------------------------------------------------------------------------------


  
 reached required accuracy - stopping structural energy minimisation
     LOOP+:  cpu time    1.0199: real time    1.0282
    4ORBIT:  cpu time    0.0000: real time    0.0000

 total amount of memory used by VASP MPI-rank0    38443. kBytes
=======================================================================

   base      :      30000. kBytes
   nonlr-proj:         32. kBytes
   fftplans  :       3023. kBytes
   grid      :       4138. kBytes
   one-center:          1. kBytes
   wavefun   :       1249. kBytes
 
  
  
 General timing and accounting informations for this job:
 ========================================================
  
                  Total CPU time used (sec):        5.879
                            User time (sec):        5.550
                          System time (sec):        0.329
                         Elapsed time (sec):        6.428
  
                   Maximum memory used (kb):      206856.
                   Average memory used (kb):           0.
  
                          Minor page faults:        44678
                          Major page faults:            0
                 Voluntary context switches:         1023
