 running on   64 total cores
 distrk:  each k-point on   64 cores,    1 groups
 distr:  one band on    8 cores,    8 groups
 using from now: INCAR     
 vasp.5.4.4.18Apr17-6-g9f103f2a35 (build May 23 2022 10:35:18) complex          
  
 POSCAR found type information on POSCAR  H 
 POSCAR found :  1 types and       2 ions
 scaLAPACK will be used

 ----------------------------------------------------------------------------- 
|                                                                             |
|  ADVICE TO THIS USER RUNNING 'VASP/VAMP'   (HEAR YOUR MASTER'S VOICE ...):  |
|                                                                             |
|      You have a (more or less) 'small supercell' and for smaller cells      |
|      it is recommended  to use the reciprocal-space projection scheme!      |
|      The real space optimization is not  efficient for small cells and it   |
|      is also less accurate ...                                              |
|      Therefore set LREAL=.FALSE. in the  INCAR file                         |
|                                                                             |
 ----------------------------------------------------------------------------- 

 LDA part: xc-table for Pade appr. of Perdew
 POSCAR found type information on POSCAR  H 
 POSCAR found :  1 types and       2 ions
 POSCAR, INCAR and KPOINTS ok, starting setup
 FFT: planning ...
 WAVECAR not read
 entering main loop
       N       E                     dE             d eps       ncg     rms          rms(c)
DAV:   1    -0.179696418893E+01   -0.17970E+01   -0.37887E+02   240   0.782E+01
DAV:   2    -0.734597671745E+01   -0.55490E+01   -0.55524E+01   168   0.256E+01
DAV:   3    -0.745772111247E+01   -0.11174E+00   -0.11106E+00   280   0.483E+00
DAV:   4    -0.745776917944E+01   -0.48067E-04   -0.48064E-04   176   0.906E-02
DAV:   5    -0.745776937634E+01   -0.19689E-06   -0.19838E-06   256   0.698E-03    0.457E+00
RMM:   6    -0.699691720925E+01    0.46085E+00   -0.17922E-01   160   0.130E+00    0.251E+00
RMM:   7    -0.674472630464E+01    0.25219E+00   -0.48980E-01   160   0.214E+00    0.300E-01
RMM:   8    -0.674846356128E+01   -0.37373E-02   -0.49356E-03   160   0.226E-01    0.239E-01
RMM:   9    -0.674533630671E+01    0.31273E-02   -0.38153E-03   160   0.182E-01    0.364E-02
RMM:  10    -0.674645492639E+01   -0.11186E-02   -0.12505E-03   160   0.963E-02    0.233E-02
RMM:  11    -0.674700915962E+01   -0.55423E-03   -0.22143E-05   160   0.147E-02    0.122E-02
RMM:  12    -0.674902035418E+01   -0.20112E-02   -0.39886E-04   160   0.572E-02    0.792E-03
RMM:  13    -0.674919157227E+01   -0.17122E-03   -0.14934E-05   160   0.976E-03    0.532E-03
RMM:  14    -0.674940495223E+01   -0.21338E-03   -0.17099E-05   160   0.117E-02    0.242E-03
RMM:  15    -0.674944822871E+01   -0.43276E-04   -0.85106E-07   150   0.269E-03    0.637E-04
RMM:  16    -0.674947137182E+01   -0.23143E-04   -0.38743E-07   150   0.205E-03    0.296E-04
RMM:  17    -0.674947892914E+01   -0.75573E-05    0.00000E+00   140   0.967E-04
   1 F= -.67494789E+01 E0= -.67514116E+01  d E =-.674948E+01
 curvature:   0.00 expect dE= 0.000E+00 dE for cont linesearch  0.000E+00
 trial: gam= 0.00000 g(F)=  0.230E-01 g(S)=  0.000E+00 ort = 0.000E+00 (trialstep = 0.100E+01)
 search vector abs. value=  0.230E-01
 bond charge predicted
       N       E                     dE             d eps       ncg     rms          rms(c)
DAV:   1    -0.673815013435E+01    0.11321E-01   -0.65648E-01   176   0.381E+00    0.391E-01
RMM:   2    -0.673579333592E+01    0.23568E-02   -0.27909E-03   160   0.225E-01    0.212E-01
RMM:   3    -0.673507150560E+01    0.72183E-03   -0.23964E-03   160   0.138E-01    0.155E-02
RMM:   4    -0.673512536693E+01   -0.53861E-04   -0.27128E-05   160   0.159E-02    0.632E-03
RMM:   5    -0.673514438219E+01   -0.19015E-04   -0.29585E-06   150   0.658E-03    0.150E-03
RMM:   6    -0.673515311750E+01   -0.87353E-05   -0.13791E-06   150   0.336E-03
   2 F= -.67351531E+01 E0= -.67370858E+01  d E =0.143258E-01
 trial-energy change:    0.014326  1 .order    0.012522   -0.022989    0.048032
 step:   0.2922(harm=  0.3237)  dis= 0.00688  next Energy=    -6.752792 (dE=-0.331E-02)
 bond charge predicted
       N       E                     dE             d eps       ncg     rms          rms(c)
DAV:   1    -0.675421777934E+01   -0.19073E-01   -0.32265E-01   200   0.264E+00    0.269E-01
RMM:   2    -0.675310175810E+01    0.11160E-02   -0.12459E-03   160   0.151E-01    0.151E-01
RMM:   3    -0.675273052536E+01    0.37123E-03   -0.12846E-03   160   0.100E-01    0.120E-02
RMM:   4    -0.675274443307E+01   -0.13908E-04   -0.72779E-06   160   0.876E-03    0.629E-03
RMM:   5    -0.675275861303E+01   -0.14180E-04   -0.25657E-06   150   0.619E-03    0.296E-03
RMM:   6    -0.675276185640E+01   -0.32434E-05   -0.34513E-07   150   0.191E-03
   3 F= -.67527619E+01 E0= -.67546945E+01  d E =-.328293E-02
 curvature:  -0.16 expect dE=-0.293E-07 dE for cont linesearch -0.291E-07
 trial: gam= 0.00000 g(F)=  0.182E-06 g(S)=  0.000E+00 ort =-0.644E-04 (trialstep = 0.858E+00)
 search vector abs. value=  0.182E-06
 reached required accuracy - stopping structural energy minimisation
