<?xml version="1.0" encoding="ISO-8859-1"?>
<modeling>
 <generator>
  <i name="program" type="string">vasp </i>
  <i name="version" type="string">5.4.4.18Apr17-6-g9f103f2a35  </i>
  <i name="subversion" type="string">(build May 23 2022 10:35:18) complex            parallel </i>
  <i name="platform" type="string">IFC18_impi </i>
  <i name="date" type="string">2023 06 19 </i>
  <i name="time" type="string">17:14:29 </i>
 </generator>
 <incar>
  <i type="string" name="SYSTEM"> Pt</i>
  <i type="int" name="ISTART">     0</i>
  <i type="string" name="PREC">med   normal | accurate</i>
  <i type="string" name="ALGO">  Fast    Normal, Fast, Very_Fast</i>
  <i type="int" name="ICHARG">     2</i>
  <i type="int" name="INIWAV">     1</i>
  <i type="int" name="NELM">   100</i>
  <i type="int" name="IBRION">     2</i>
  <i name="EDIFF">      0.00001000</i>
  <i type="int" name="NSW">   200</i>
  <i type="int" name="ISIF">     1</i>
  <i type="int" name="ISYM">     0</i>
  <i name="ENCUT">    400.00000000</i>
  <i type="string" name="LREAL">  Auto     real-space projection (.FALSE</i>
  <i type="int" name="ISMEAR">     1</i>
  <i name="SIGMA">      0.10000000</i>
  <i type="int" name="NWRITE">     2</i>
  <i type="logical" name="LWAVE"> F  </i>
  <i type="logical" name="LCHARG"> F  </i>
  <i type="logical" name="LAECHG"> F  </i>
  <v type="int" name="KPOINT_BSE">    -1     0     0     0</v>
  <i type="int" name="NELM">   100</i>
 </incar>
 <structure name="primitive_cell" >
  <crystal>
   <varray name="basis" >
    <v>      11.21435918       0.00000000       0.00000000 </v>
    <v>       5.60717866       9.71191963       0.00000000 </v>
    <v>       0.00000000       0.00000000      31.44560795 </v>
   </varray>
   <i name="volume">   3424.83408825 </i>
   <varray name="rec_basis" >
    <v>       0.08917139      -0.05148312       0.00000000 </v>
    <v>       0.00000000       0.10296626       0.00000000 </v>
    <v>       0.00000000       0.00000000       0.03180094 </v>
   </varray>
  </crystal>
  <varray name="positions" >
   <v>       0.18844136      -0.48516872       0.17072600 </v>
   <v>       0.18844136      -0.48516872       0.14728343 </v>
  </varray>
 </structure>
 <varray name="primitive_index" >
  <v type="int" >        1 </v>
  <v type="int" >        2 </v>
 </varray>
 <kpoints>
  <generation param="Gamma">
   <v type="int" name="divisions">       4        4        1 </v>
   <v name="usershift">      0.00000000       0.00000000       0.00000000 </v>
   <v name="genvec1">      0.25000000      -0.00000000       0.00000000 </v>
   <v name="genvec2">      0.00000000       0.25000000       0.00000000 </v>
   <v name="genvec3">      0.00000000       0.00000000       1.00000000 </v>
   <v name="shift">      0.00000000       0.00000000       0.00000000 </v>
  </generation>
  <varray name="kpointlist" >
   <v>       0.00000000       0.00000000       0.00000000 </v>
   <v>       0.25000000      -0.00000000       0.00000000 </v>
   <v>       0.50000000      -0.00000000       0.00000000 </v>
   <v>       0.00000000       0.25000000       0.00000000 </v>
   <v>       0.25000000       0.25000000       0.00000000 </v>
   <v>       0.50000000       0.25000000       0.00000000 </v>
   <v>      -0.25000000       0.25000000       0.00000000 </v>
   <v>       0.00000000       0.50000000       0.00000000 </v>
   <v>       0.25000000       0.50000000       0.00000000 </v>
   <v>       0.50000000       0.50000000       0.00000000 </v>
  </varray>
  <varray name="weights" >
   <v>       0.06250000 </v>
   <v>       0.12500000 </v>
   <v>       0.06250000 </v>
   <v>       0.12500000 </v>
   <v>       0.12500000 </v>
   <v>       0.12500000 </v>
   <v>       0.12500000 </v>
   <v>       0.06250000 </v>
   <v>       0.12500000 </v>
   <v>       0.06250000 </v>
  </varray>
 </kpoints>
 <parameters>
  <separator name="general" >
   <i type="string" name="SYSTEM">Pt</i>
   <i type="logical" name="LCOMPAT"> F  </i>
  </separator>
  <separator name="electronic" >
   <i type="string" name="PREC">med</i>
   <i name="ENMAX">    400.00000000</i>
   <i name="ENAUG">    400.00000000</i>
   <i name="EDIFF">      0.00001000</i>
   <i type="int" name="IALGO">    68</i>
   <i type="int" name="IWAVPR">    11</i>
   <i type="int" name="NBANDS">     8</i>
   <i name="NELECT">      2.00000000</i>
   <i type="int" name="TURBO">     0</i>
   <i type="int" name="IRESTART">     0</i>
   <i type="int" name="NREBOOT">     0</i>
   <i type="int" name="NMIN">     0</i>
   <i name="EREF">      0.00000000</i>
   <separator name="electronic smearing" >
    <i type="int" name="ISMEAR">     1</i>
    <i name="SIGMA">      0.10000000</i>
    <i name="KSPACING">      0.50000000</i>
    <i type="logical" name="KGAMMA"> T  </i>
   </separator>
   <separator name="electronic projectors" >
    <i type="logical" name="LREAL"> T  </i>
    <v name="ROPT">     -0.00200000</v>
    <i type="int" name="LMAXPAW">  -100</i>
    <i type="int" name="LMAXMIX">     2</i>
    <i type="logical" name="NLSPLINE"> F  </i>
   </separator>
   <separator name="electronic startup" >
    <i type="int" name="ISTART">     0</i>
    <i type="int" name="ICHARG">     2</i>
    <i type="int" name="INIWAV">     1</i>
   </separator>
   <separator name="electronic spin" >
    <i type="int" name="ISPIN">     1</i>
    <i type="logical" name="LNONCOLLINEAR"> F  </i>
    <v name="MAGMOM">      1.00000000      1.00000000</v>
    <i name="NUPDOWN">     -1.00000000</i>
    <i type="logical" name="LSORBIT"> F  </i>
    <v name="SAXIS">      0.00000000      0.00000000      1.00000000</v>
    <i type="logical" name="LSPIRAL"> F  </i>
    <v name="QSPIRAL">      0.00000000      0.00000000      0.00000000</v>
    <i type="logical" name="LZEROZ"> F  </i>
   </separator>
   <separator name="electronic exchange-correlation" >
    <i type="logical" name="LASPH"> F  </i>
    <i type="logical" name="LMETAGGA"> F  </i>
   </separator>
   <separator name="electronic convergence" >
    <i type="int" name="NELM">   100</i>
    <i type="int" name="NELMDL">    -5</i>
    <i type="int" name="NELMIN">     2</i>
    <i name="ENINI">    400.00000000</i>
    <separator name="electronic convergence detail" >
     <i type="logical" name="LDIAG"> T  </i>
     <i type="logical" name="LSUBROT"> F  </i>
     <i name="WEIMIN">      0.00100000</i>
     <i name="EBREAK">      0.00000031</i>
     <i name="DEPER">      0.30000000</i>
     <i type="int" name="NRMM">     4</i>
     <i name="TIME">      0.40000000</i>
    </separator>
   </separator>
   <separator name="electronic mixer" >
    <i name="AMIX">      0.40000000</i>
    <i name="BMIX">      1.00000000</i>
    <i name="AMIN">      0.10000000</i>
    <i name="AMIX_MAG">      1.60000000</i>
    <i name="BMIX_MAG">      1.00000000</i>
    <separator name="electronic mixer details" >
     <i type="int" name="IMIX">     4</i>
     <i type="logical" name="MIXFIRST"> F  </i>
     <i type="int" name="MAXMIX">   -45</i>
     <i name="WC">    100.00000000</i>
     <i type="int" name="INIMIX">     1</i>
     <i type="int" name="MIXPRE">     1</i>
     <i type="int" name="MREMOVE">     5</i>
    </separator>
   </separator>
   <separator name="electronic dipolcorrection" >
    <i type="logical" name="LDIPOL"> F  </i>
    <i type="logical" name="LMONO"> F  </i>
    <i type="int" name="IDIPOL">     0</i>
    <i name="EPSILON">      1.00000000</i>
    <v name="DIPOL">   -100.00000000   -100.00000000   -100.00000000</v>
    <i name="EFIELD">      0.00000000</i>
   </separator>
  </separator>
  <separator name="grids" >
   <i type="int" name="NGX">    56</i>
   <i type="int" name="NGY">    56</i>
   <i type="int" name="NGZ">   160</i>
   <i type="int" name="NGXF">    80</i>
   <i type="int" name="NGYF">    80</i>
   <i type="int" name="NGZF">   210</i>
   <i type="logical" name="ADDGRID"> F  </i>
  </separator>
  <separator name="ionic" >
   <i type="int" name="NSW">   200</i>
   <i type="int" name="IBRION">     2</i>
   <i type="int" name="MDALGO">     0</i>
   <i type="int" name="ISIF">     1</i>
   <i name="PSTRESS">      0.00000000</i>
   <i name="EDIFFG">      0.00010000</i>
   <i type="int" name="NFREE">     1</i>
   <i name="POTIM">      0.50000000</i>
   <i name="SMASS">     -3.00000000</i>
   <i name="SCALEE">      1.00000000</i>
  </separator>
  <separator name="ionic md" >
   <i name="TEBEG">      0.00010000</i>
   <i name="TEEND">      0.00010000</i>
   <i type="int" name="NBLOCK">     1</i>
   <i type="int" name="KBLOCK">   200</i>
   <i type="int" name="NPACO">   256</i>
   <i name="APACO">     16.00000000</i>
  </separator>
  <separator name="symmetry" >
   <i type="int" name="ISYM">     0</i>
   <i name="SYMPREC">      0.00001000</i>
  </separator>
  <separator name="dos" >
   <i type="int" name="LORBIT">     0</i>
   <v name="RWIGS">     -1.00000000</v>
   <i type="int" name="NEDOS">   301</i>
   <i name="EMIN">     10.00000000</i>
   <i name="EMAX">    -10.00000000</i>
   <i name="EFERMI">      0.00000000</i>
  </separator>
  <separator name="writing" >
   <i type="int" name="NWRITE">     2</i>
   <i type="logical" name="LWAVE"> F  </i>
   <i type="logical" name="LDOWNSAMPLE"> F  </i>
   <i type="logical" name="LCHARG"> F  </i>
   <i type="logical" name="LPARD"> F  </i>
   <i type="logical" name="LVTOT"> F  </i>
   <i type="logical" name="LVHAR"> F  </i>
   <i type="logical" name="LELF"> F  </i>
   <i type="logical" name="LOPTICS"> F  </i>
   <v name="STM">      0.00000000      0.00000000      0.00000000      0.00000000      0.00000000      0.00000000      0.00000000</v>
  </separator>
  <separator name="performance" >
   <i type="int" name="NPAR">     8</i>
   <i type="int" name="NSIM">     4</i>
   <i type="int" name="NBLK">    -1</i>
   <i type="logical" name="LPLANE"> T  </i>
   <i type="logical" name="LSCALAPACK"> T  </i>
   <i type="logical" name="LSCAAWARE"> F  </i>
   <i type="logical" name="LSCALU"> F  </i>
   <i type="logical" name="LASYNC"> F  </i>
   <i type="logical" name="LORBITALREAL"> F  </i>
  </separator>
  <separator name="miscellaneous" >
   <i type="int" name="IDIOT">     3</i>
   <i type="int" name="ISPECIAL">     0</i>
   <i type="logical" name="LMUSIC"> F  </i>
   <v name="POMASS">      1.00000000</v>
   <v name="DARWINR">      0.00000000</v>
   <v name="DARWINV">      1.00000000</v>
   <i type="logical" name="LCORR"> T  </i>
  </separator>
  <i type="logical" name="GGA_COMPAT"> T  </i>
  <i type="logical" name="LBERRY"> F  </i>
  <i type="int" name="ICORELEVEL">     0</i>
  <i type="logical" name="LDAU"> F  </i>
  <i type="int" name="I_CONSTRAINED_M">     0</i>
  <separator name="electronic exchange-correlation" >
   <i type="string" name="GGA">--</i>
   <i type="int" name="VOSKOWN">     0</i>
   <i type="logical" name="LHFCALC"> F  </i>
   <i type="string" name="PRECFOCK"></i>
   <i type="logical" name="LSYMGRAD"> F  </i>
   <i type="logical" name="LHFONE"> F  </i>
   <i type="logical" name="LRHFCALC"> F  </i>
   <i type="logical" name="LTHOMAS"> F  </i>
   <i type="logical" name="LMODELHF"> F  </i>
   <i name="ENCUT4O">     -1.00000000</i>
   <i type="int" name="EXXOEP">     0</i>
   <i type="int" name="FOURORBIT">     0</i>
   <i name="AEXX">      0.00000000</i>
   <i name="HFALPHA">      0.00000000</i>
   <i name="MCALPHA">      0.00000000</i>
   <i name="ALDAX">      1.00000000</i>
   <i name="AGGAX">      1.00000000</i>
   <i name="ALDAC">      1.00000000</i>
   <i name="AGGAC">      1.00000000</i>
   <i type="int" name="NKREDX">     1</i>
   <i type="int" name="NKREDY">     1</i>
   <i type="int" name="NKREDZ">     1</i>
   <i type="logical" name="SHIFTRED"> F  </i>
   <i type="logical" name="ODDONLY"> F  </i>
   <i type="logical" name="EVENONLY"> F  </i>
   <i type="int" name="LMAXFOCK">     0</i>
   <i type="int" name="NMAXFOCKAE">     0</i>
   <i type="logical" name="LFOCKAEDFT"> F  </i>
   <i name="HFSCREEN">      0.00000000</i>
   <i name="HFSCREENC">      0.00000000</i>
   <i type="int" name="NBANDSGWLOW">     0</i>
  </separator>
  <separator name="vdW DFT" >
   <i type="logical" name="LUSE_VDW"> F  </i>
   <i name="Zab_VDW">     -0.84910000</i>
   <i name="PARAM1">      0.12340000</i>
   <i name="PARAM2">      1.00000000</i>
   <i name="PARAM3">      0.00000000</i>
  </separator>
  <separator name="model GW" >
   <i type="int" name="MODEL_GW">     0</i>
   <i name="MODEL_EPS0">   1027.45022648</i>
   <i name="MODEL_ALPHA">      1.00000000</i>
  </separator>
  <separator name="linear response parameters" >
   <i type="logical" name="LEPSILON"> F  </i>
   <i type="logical" name="LRPA"> F  </i>
   <i type="logical" name="LNABLA"> F  </i>
   <i type="logical" name="LVEL"> F  </i>
   <i type="int" name="KINTER">     0</i>
   <i name="CSHIFT">      0.10000000</i>
   <i name="OMEGAMAX">     -1.00000000</i>
   <i name="DEG_THRESHOLD">      0.00200000</i>
   <i name="RTIME">     -0.10000000</i>
   <i name="WPLASMAI">      0.00000000</i>
   <v name="DFIELD">      0.00000000      0.00000000      0.00000000</v>
   <v name="WPLASMA">      0.00000000      0.00000000      0.00000000      0.00000000      0.00000000      0.00000000      0.00000000      0.00000000      0.00000000</v>
  </separator>
  <separator name="orbital magnetization" >
   <i type="logical" name="NUCIND"> F  </i>
   <v name="MAGPOS">      0.00000000      0.00000000      0.00000000</v>
   <i type="logical" name="LNICSALL"> T  </i>
   <i type="logical" name="ORBITALMAG"> F  </i>
   <i type="logical" name="LMAGBLOCH"> F  </i>
   <i type="logical" name="LCHIMAG"> F  </i>
   <i type="logical" name="LGAUGE"> T  </i>
   <i type="int" name="MAGATOM">     0</i>
   <v name="MAGDIPOL">      0.00000000      0.00000000      0.00000000</v>
   <v name="AVECCONST">      0.00000000      0.00000000      0.00000000</v>
  </separator>
  <separator name="response functions" >
   <i type="logical" name="LADDER"> F  </i>
   <i type="logical" name="LRPAFORCE"> F  </i>
   <i type="logical" name="LFXC"> F  </i>
   <i type="logical" name="LHARTREE"> T  </i>
   <i type="int" name="IBSE">     0</i>
   <v type="int" name="KPOINT">    -1     0     0     0</v>
   <i type="logical" name="LTCTE"> F  </i>
   <i type="logical" name="LTETE"> F  </i>
   <i type="logical" name="LTRIPLET"> F  </i>
   <i type="logical" name="LFXCEPS"> F  </i>
   <i type="logical" name="LFXHEG"> F  </i>
   <i type="int" name="NATURALO">     2</i>
   <i type="logical" name="L2ORDER"> F  </i>
   <i type="logical" name="LMP2LT"> F  </i>
   <i type="logical" name="LUSEW"> F  </i>
   <i name="ENCUTGW">     -2.00000000</i>
   <i name="ENCUTGWSOFT">     -2.00000000</i>
   <i name="ENCUTLF">     -1.00000000</i>
   <i type="int" name="LMAXMP2">    -1</i>
   <i name="SCISSOR">      0.00000000</i>
   <i type="int" name="NOMEGA">     0</i>
   <i type="int" name="NOMEGAR">     0</i>
   <i type="int" name="NBANDSGW">    -1</i>
   <i type="int" name="NBANDSO">    -1</i>
   <i type="int" name="NBANDSV">    -1</i>
   <i type="int" name="NELM">   100</i>
   <i type="int" name="NELMHF">     1</i>
   <i type="int" name="DIM">     3</i>
   <i type="int" name="ANTIRES">     0</i>
   <i name="OMEGAMAX">    -30.00000000</i>
   <i name="OMEGAMIN">    -30.00000000</i>
   <i name="OMEGATL">   -200.00000000</i>
   <i type="int" name="OMEGAGRID">   140</i>
   <i name="CSHIFT">     -0.10000000</i>
   <i type="logical" name="SELFENERGY"> F  </i>
   <i type="logical" name="LSPECTRAL"> F  </i>
   <i type="logical" name="LSPECTRALGW"> F  </i>
   <i type="logical" name="LSINGLES"> F  </i>
   <i type="logical" name="LFERMIGW"> F  </i>
   <i type="logical" name="ODDONLYGW"> F  </i>
   <i type="logical" name="EVENONLYGW"> F  </i>
   <i type="int" name="NKREDLFX">     1</i>
   <i type="int" name="NKREDLFY">     1</i>
   <i type="int" name="NKREDLFZ">     1</i>
   <i type="int" name="MAXMEM">  2800</i>
   <i type="int" name="TELESCOPE">     0</i>
   <i type="int" name="TAUPAR">     1</i>
   <i type="int" name="OMEGAPAR">    -1</i>
   <i name="LAMBDA">      1.00000000</i>
  </separator>
  <separator name="External order field" >
   <i name="OFIELD_KAPPA">      0.00000000</i>
   <v name="OFIELD_K">      0.00000000      0.00000000      0.00000000</v>
   <i name="OFIELD_Q6_NEAR">      0.00000000</i>
   <i name="OFIELD_Q6_FAR">      0.00000000</i>
   <i name="OFIELD_A">      0.00000000</i>
  </separator>
 </parameters>
 <atominfo>
  <atoms>       2 </atoms>
  <types>       1 </types>
  <array name="atoms" >
   <dimension dim="1">ion</dimension>
   <field type="string">element</field>
   <field type="int">atomtype</field>
   <set>
    <rc><c>H </c><c>   1</c></rc>
    <rc><c>H </c><c>   1</c></rc>
   </set>
  </array>
  <array name="atomtypes" >
   <dimension dim="1">type</dimension>
   <field type="int">atomspertype</field>
   <field type="string">element</field>
   <field>mass</field>
   <field>valence</field>
   <field type="string">pseudopotential</field>
   <set>
    <rc><c>   2</c><c>H </c><c>      1.00000000</c><c>      1.00000000</c><c>  PAW_PBE H 15Jun2001                   </c></rc>
   </set>
  </array>
 </atominfo>
 <structure name="initialpos" >
  <crystal>
   <varray name="basis" >
    <v>      11.21435918       0.00000000       0.00000000 </v>
    <v>       5.60717866       9.71191963       0.00000000 </v>
    <v>       0.00000000       0.00000000      31.44560795 </v>
   </varray>
   <i name="volume">   3424.83408825 </i>
   <varray name="rec_basis" >
    <v>       0.08917139      -0.05148312       0.00000000 </v>
    <v>       0.00000000       0.10296626       0.00000000 </v>
    <v>       0.00000000       0.00000000       0.03180094 </v>
   </varray>
  </crystal>
  <varray name="positions" >
   <v>       0.18844136       0.51483128       0.17072600 </v>
   <v>       0.18844136       0.51483128       0.14728343 </v>
  </varray>
 </structure>
 <calculation>
  <scstep>
   <time name="dav">    0.17    0.17</time>
   <time name="total">    0.19    0.20</time>
   <energy>
    <i name="alphaZ">      0.00284530 </i>
    <i name="ewald">     17.40483781 </i>
    <i name="hartreedc">    -26.63703136 </i>
    <i name="XCdc">      4.35839037 </i>
    <i name="pawpsdc">      4.26805487 </i>
    <i name="pawaedc">     -4.28581044 </i>
    <i name="eentropy">      0.00121107 </i>
    <i name="bandstr">    -21.86672714 </i>
    <i name="atom">     24.95726533 </i>
    <i name="e_fr_energy">     -1.79696419 </i>
    <i name="e_wo_entrp">     -1.79817526 </i>
    <i name="e_0_energy">     -1.79736788 </i>
   </energy>
  </scstep>
  <scstep>
   <time name="dav">    0.13    0.13</time>
   <time name="total">    0.13    0.13</time>
   <energy>
    <i name="e_fr_energy">     -7.34597672 </i>
    <i name="e_wo_entrp">     -7.35245856 </i>
    <i name="e_0_energy">     -7.34813733 </i>
   </energy>
  </scstep>
  <scstep>
   <time name="dav">    0.19    0.19</time>
   <time name="total">    0.19    0.19</time>
   <energy>
    <i name="e_fr_energy">     -7.45772111 </i>
    <i name="e_wo_entrp">     -7.46351903 </i>
    <i name="e_0_energy">     -7.45965375 </i>
   </energy>
  </scstep>
  <scstep>
   <time name="dav">    0.13    0.13</time>
   <time name="total">    0.13    0.13</time>
   <energy>
    <i name="e_fr_energy">     -7.45776918 </i>
    <i name="e_wo_entrp">     -7.46356709 </i>
    <i name="e_0_energy">     -7.45970182 </i>
   </energy>
  </scstep>
  <scstep>
   <time name="dav">    0.17    0.17</time>
   <time name="total">    0.18    0.18</time>
   <energy>
    <i name="e_fr_energy">     -7.45776938 </i>
    <i name="e_wo_entrp">     -7.46356729 </i>
    <i name="e_0_energy">     -7.45970201 </i>
   </energy>
  </scstep>
  <scstep>
   <time name="diag">    0.05    0.05</time>
   <time name="diis">    0.10    0.10</time>
   <time name="orth">    0.00    0.00</time>
   <time name="total">    0.18    0.18</time>
   <energy>
    <i name="e_fr_energy">     -6.99691721 </i>
    <i name="e_wo_entrp">     -7.00271512 </i>
    <i name="e_0_energy">     -6.99884985 </i>
   </energy>
  </scstep>
  <scstep>
   <time name="diag">    0.04    0.04</time>
   <time name="diis">    0.10    0.10</time>
   <time name="orth">    0.00    0.00</time>
   <time name="total">    0.17    0.18</time>
   <energy>
    <i name="e_fr_energy">     -6.74472630 </i>
    <i name="e_wo_entrp">     -6.75052422 </i>
    <i name="e_0_energy">     -6.74665894 </i>
   </energy>
  </scstep>
  <scstep>
   <time name="diag">    0.04    0.04</time>
   <time name="diis">    0.10    0.10</time>
   <time name="orth">    0.00    0.00</time>
   <time name="total">    0.16    0.17</time>
   <energy>
    <i name="e_fr_energy">     -6.74846356 </i>
    <i name="e_wo_entrp">     -6.75426147 </i>
    <i name="e_0_energy">     -6.75039620 </i>
   </energy>
  </scstep>
  <scstep>
   <time name="diag">    0.04    0.04</time>
   <time name="diis">    0.10    0.10</time>
   <time name="orth">    0.00    0.00</time>
   <time name="total">    0.16    0.16</time>
   <energy>
    <i name="e_fr_energy">     -6.74533631 </i>
    <i name="e_wo_entrp">     -6.75113422 </i>
    <i name="e_0_energy">     -6.74726894 </i>
   </energy>
  </scstep>
  <scstep>
   <time name="diag">    0.04    0.04</time>
   <time name="diis">    0.10    0.10</time>
   <time name="orth">    0.00    0.00</time>
   <time name="total">    0.16    0.16</time>
   <energy>
    <i name="e_fr_energy">     -6.74645493 </i>
    <i name="e_wo_entrp">     -6.75225284 </i>
    <i name="e_0_energy">     -6.74838756 </i>
   </energy>
  </scstep>
  <scstep>
   <time name="diag">    0.04    0.04</time>
   <time name="diis">    0.10    0.10</time>
   <time name="orth">    0.00    0.00</time>
   <time name="total">    0.16    0.16</time>
   <energy>
    <i name="e_fr_energy">     -6.74700916 </i>
    <i name="e_wo_entrp">     -6.75280707 </i>
    <i name="e_0_energy">     -6.74894180 </i>
   </energy>
  </scstep>
  <scstep>
   <time name="diag">    0.04    0.04</time>
   <time name="diis">    0.10    0.10</time>
   <time name="orth">    0.00    0.00</time>
   <time name="total">    0.16    0.16</time>
   <energy>
    <i name="e_fr_energy">     -6.74902035 </i>
    <i name="e_wo_entrp">     -6.75481827 </i>
    <i name="e_0_energy">     -6.75095299 </i>
   </energy>
  </scstep>
  <scstep>
   <time name="diag">    0.04    0.04</time>
   <time name="diis">    0.10    0.10</time>
   <time name="orth">    0.00    0.00</time>
   <time name="total">    0.16    0.16</time>
   <energy>
    <i name="e_fr_energy">     -6.74919157 </i>
    <i name="e_wo_entrp">     -6.75498948 </i>
    <i name="e_0_energy">     -6.75112421 </i>
   </energy>
  </scstep>
  <scstep>
   <time name="diag">    0.04    0.04</time>
   <time name="diis">    0.10    0.10</time>
   <time name="orth">    0.00    0.00</time>
   <time name="total">    0.16    0.16</time>
   <energy>
    <i name="e_fr_energy">     -6.74940495 </i>
    <i name="e_wo_entrp">     -6.75520286 </i>
    <i name="e_0_energy">     -6.75133759 </i>
   </energy>
  </scstep>
  <scstep>
   <time name="diag">    0.04    0.04</time>
   <time name="diis">    0.10    0.10</time>
   <time name="orth">    0.00    0.00</time>
   <time name="total">    0.15    0.16</time>
   <energy>
    <i name="e_fr_energy">     -6.74944823 </i>
    <i name="e_wo_entrp">     -6.75524614 </i>
    <i name="e_0_energy">     -6.75138087 </i>
   </energy>
  </scstep>
  <scstep>
   <time name="diag">    0.04    0.04</time>
   <time name="diis">    0.10    0.10</time>
   <time name="orth">    0.00    0.00</time>
   <time name="total">    0.16    0.16</time>
   <energy>
    <i name="e_fr_energy">     -6.74947137 </i>
    <i name="e_wo_entrp">     -6.75526928 </i>
    <i name="e_0_energy">     -6.75140401 </i>
   </energy>
  </scstep>
  <scstep>
   <time name="diag">    0.04    0.04</time>
   <time name="diis">    0.09    0.09</time>
   <time name="orth">    0.00    0.00</time>
   <time name="total">    0.15    0.15</time>
   <energy>
    <i name="alphaZ">      0.00284530 </i>
    <i name="ewald">     17.40483781 </i>
    <i name="hartreedc">    -33.63368482 </i>
    <i name="XCdc">      5.32999266 </i>
    <i name="pawpsdc">     25.55991340 </i>
    <i name="pawaedc">    -25.61049643 </i>
    <i name="eentropy">      0.00579791 </i>
    <i name="bandstr">    -20.76595009 </i>
    <i name="atom">     24.95726533 </i>
    <i name="e_fr_energy">     -6.74947893 </i>
    <i name="e_wo_entrp">     -6.75527684 </i>
    <i name="e_0_energy">     -6.75141157 </i>
   </energy>
  </scstep>
  <structure>
   <crystal>
    <varray name="basis" >
     <v>      11.21435918       0.00000000       0.00000000 </v>
     <v>       5.60717866       9.71191963       0.00000000 </v>
     <v>       0.00000000       0.00000000      31.44560795 </v>
    </varray>
    <i name="volume">   3424.83408825 </i>
    <varray name="rec_basis" >
     <v>       0.08917139      -0.05148312       0.00000000 </v>
     <v>       0.00000000       0.10296626       0.00000000 </v>
     <v>       0.00000000       0.00000000       0.03180094 </v>
    </varray>
   </crystal>
   <varray name="positions" >
    <v>       0.18844136       0.51483128       0.17072600 </v>
    <v>       0.18844136       0.51483128       0.14728343 </v>
   </varray>
  </structure>
  <varray name="forces" >
   <v>       0.00029037      -0.00001865       0.48812394 </v>
   <v>      -0.00029037       0.00001865      -0.48812394 </v>
  </varray>
  <varray name="stress" >
   <v>      -0.22355183       0.00012788      -0.00000236 </v>
   <v>       0.00012788      -0.22368323      -0.00000075 </v>
   <v>      -0.00000236      -0.00000075       0.42924277 </v>
  </varray>
  <energy>
   <i name="e_fr_energy">     -6.74947893 </i>
   <i name="e_wo_entrp">     -6.75141157 </i>
   <i name="e_0_energy">      0.00579791 </i>
  </energy>
  <time name="totalsc">    2.83    2.86</time>
 </calculation>
 <calculation>
  <scstep>
   <time name="dav">    0.13    0.13</time>
   <time name="total">    0.15    0.16</time>
   <energy>
    <i name="alphaZ">      0.00284530 </i>
    <i name="ewald">     16.22965079 </i>
    <i name="hartreedc">    -33.23079277 </i>
    <i name="XCdc">      5.28087557 </i>
    <i name="pawpsdc">     25.56215446 </i>
    <i name="pawaedc">    -25.61274451 </i>
    <i name="eentropy">      0.00579791 </i>
    <i name="bandstr">    -19.93320223 </i>
    <i name="atom">     24.95726533 </i>
    <i name="e_fr_energy">     -6.73815013 </i>
    <i name="e_wo_entrp">     -6.74394805 </i>
    <i name="e_0_energy">     -6.74008277 </i>
   </energy>
  </scstep>
  <scstep>
   <time name="diag">    0.04    0.04</time>
   <time name="diis">    0.10    0.10</time>
   <time name="orth">    0.00    0.00</time>
   <time name="total">    0.16    0.16</time>
   <energy>
    <i name="e_fr_energy">     -6.73579334 </i>
    <i name="e_wo_entrp">     -6.74159125 </i>
    <i name="e_0_energy">     -6.73772597 </i>
   </energy>
  </scstep>
  <scstep>
   <time name="diag">    0.04    0.04</time>
   <time name="diis">    0.10    0.10</time>
   <time name="orth">    0.00    0.00</time>
   <time name="total">    0.16    0.16</time>
   <energy>
    <i name="e_fr_energy">     -6.73507151 </i>
    <i name="e_wo_entrp">     -6.74086942 </i>
    <i name="e_0_energy">     -6.73700414 </i>
   </energy>
  </scstep>
  <scstep>
   <time name="diag">    0.04    0.04</time>
   <time name="diis">    0.10    0.10</time>
   <time name="orth">    0.00    0.00</time>
   <time name="total">    0.15    0.16</time>
   <energy>
    <i name="e_fr_energy">     -6.73512537 </i>
    <i name="e_wo_entrp">     -6.74092328 </i>
    <i name="e_0_energy">     -6.73705800 </i>
   </energy>
  </scstep>
  <scstep>
   <time name="diag">    0.04    0.04</time>
   <time name="diis">    0.10    0.10</time>
   <time name="orth">    0.00    0.00</time>
   <time name="total">    0.16    0.16</time>
   <energy>
    <i name="e_fr_energy">     -6.73514438 </i>
    <i name="e_wo_entrp">     -6.74094229 </i>
    <i name="e_0_energy">     -6.73707702 </i>
   </energy>
  </scstep>
  <scstep>
   <time name="diag">    0.04    0.04</time>
   <time name="diis">    0.10    0.10</time>
   <time name="orth">    0.00    0.00</time>
   <time name="total">    0.15    0.16</time>
   <energy>
    <i name="alphaZ">      0.00284530 </i>
    <i name="ewald">     16.22965079 </i>
    <i name="hartreedc">    -32.78649736 </i>
    <i name="XCdc">      5.21874063 </i>
    <i name="pawpsdc">     22.38659824 </i>
    <i name="pawaedc">    -22.43115112 </i>
    <i name="eentropy">      0.00579791 </i>
    <i name="bandstr">    -20.31840285 </i>
    <i name="atom">     24.95726533 </i>
    <i name="e_fr_energy">     -6.73515312 </i>
    <i name="e_wo_entrp">     -6.74095103 </i>
    <i name="e_0_energy">     -6.73708575 </i>
   </energy>
  </scstep>
  <structure>
   <crystal>
    <varray name="basis" >
     <v>      11.21435918       0.00000000       0.00000000 </v>
     <v>       5.60717866       9.71191963       0.00000000 </v>
     <v>       0.00000000       0.00000000      31.44560795 </v>
    </varray>
    <i name="volume">   3424.83408825 </i>
    <varray name="rec_basis" >
     <v>       0.08917139      -0.05148312       0.00000000 </v>
     <v>       0.00000000       0.10296626       0.00000000 </v>
     <v>       0.00000000       0.00000000       0.03180094 </v>
    </varray>
   </crystal>
   <varray name="positions" >
    <v>       0.18844265       0.51483119       0.17147487 </v>
    <v>       0.18844006       0.51483137       0.14653457 </v>
   </varray>
  </structure>
  <varray name="forces" >
   <v>      -0.00013520      -0.00039570      -1.01986442 </v>
   <v>       0.00013520       0.00039570       1.01986442 </v>
  </varray>
  <varray name="stress" >
   <v>      -0.19458364       0.00011043       0.00000181 </v>
   <v>       0.00011043      -0.19471299       0.00000131 </v>
   <v>       0.00000181       0.00000131      -0.16612661 </v>
  </varray>
  <energy>
   <i name="e_fr_energy">     -6.73515312 </i>
   <i name="e_wo_entrp">     -6.73708575 </i>
   <i name="e_0_energy">      0.00579791 </i>
  </energy>
  <time name="totalsc">    1.03    1.04</time>
 </calculation>
 <calculation>
  <scstep>
   <time name="dav">    0.15    0.15</time>
   <time name="total">    0.17    0.17</time>
   <energy>
    <i name="alphaZ">      0.00284530 </i>
    <i name="ewald">     17.04628075 </i>
    <i name="hartreedc">    -33.06704518 </i>
    <i name="XCdc">      5.25307875 </i>
    <i name="pawpsdc">     22.39610038 </i>
    <i name="pawaedc">    -22.44067712 </i>
    <i name="eentropy">      0.00579791 </i>
    <i name="bandstr">    -20.90786389 </i>
    <i name="atom">     24.95726533 </i>
    <i name="e_fr_energy">     -6.75421778 </i>
    <i name="e_wo_entrp">     -6.76001569 </i>
    <i name="e_0_energy">     -6.75615042 </i>
   </energy>
  </scstep>
  <scstep>
   <time name="diag">    0.04    0.04</time>
   <time name="diis">    0.10    0.10</time>
   <time name="orth">    0.00    0.00</time>
   <time name="total">    0.16    0.16</time>
   <energy>
    <i name="e_fr_energy">     -6.75310176 </i>
    <i name="e_wo_entrp">     -6.75889967 </i>
    <i name="e_0_energy">     -6.75503440 </i>
   </energy>
  </scstep>
  <scstep>
   <time name="diag">    0.04    0.04</time>
   <time name="diis">    0.10    0.10</time>
   <time name="orth">    0.00    0.00</time>
   <time name="total">    0.16    0.16</time>
   <energy>
    <i name="e_fr_energy">     -6.75273053 </i>
    <i name="e_wo_entrp">     -6.75852844 </i>
    <i name="e_0_energy">     -6.75466316 </i>
   </energy>
  </scstep>
  <scstep>
   <time name="diag">    0.04    0.04</time>
   <time name="diis">    0.10    0.10</time>
   <time name="orth">    0.00    0.00</time>
   <time name="total">    0.16    0.16</time>
   <energy>
    <i name="e_fr_energy">     -6.75274443 </i>
    <i name="e_wo_entrp">     -6.75854234 </i>
    <i name="e_0_energy">     -6.75467707 </i>
   </energy>
  </scstep>
  <scstep>
   <time name="diag">    0.04    0.04</time>
   <time name="diis">    0.10    0.10</time>
   <time name="orth">    0.00    0.00</time>
   <time name="total">    0.16    0.16</time>
   <energy>
    <i name="e_fr_energy">     -6.75275861 </i>
    <i name="e_wo_entrp">     -6.75855652 </i>
    <i name="e_0_energy">     -6.75469125 </i>
   </energy>
  </scstep>
  <scstep>
   <time name="diag">    0.04    0.04</time>
   <time name="diis">    0.10    0.10</time>
   <time name="orth">    0.00    0.00</time>
   <time name="total">    0.15    0.15</time>
   <energy>
    <i name="alphaZ">      0.00284530 </i>
    <i name="ewald">     17.04628075 </i>
    <i name="hartreedc">    -33.37821815 </i>
    <i name="XCdc">      5.29658023 </i>
    <i name="pawpsdc">     24.59901466 </i>
    <i name="pawaedc">    -24.64770792 </i>
    <i name="eentropy">      0.00579791 </i>
    <i name="bandstr">    -20.63461997 </i>
    <i name="atom">     24.95726533 </i>
    <i name="e_fr_energy">     -6.75276186 </i>
    <i name="e_wo_entrp">     -6.75855977 </i>
    <i name="e_0_energy">     -6.75469449 </i>
   </energy>
  </scstep>
  <structure>
   <crystal>
    <varray name="basis" >
     <v>      11.21435918       0.00000000       0.00000000 </v>
     <v>       5.60717866       9.71191963       0.00000000 </v>
     <v>       0.00000000       0.00000000      31.44560795 </v>
    </varray>
    <i name="volume">   3424.83408825 </i>
    <varray name="rec_basis" >
     <v>       0.08917139      -0.05148312       0.00000000 </v>
     <v>       0.00000000       0.10296626       0.00000000 </v>
     <v>       0.00000000       0.00000000       0.03180094 </v>
    </varray>
   </crystal>
   <varray name="positions" >
    <v>       0.18844173       0.51483125       0.17094480 </v>
    <v>       0.18844098       0.51483131       0.14706463 </v>
   </varray>
  </structure>
  <varray name="forces" >
   <v>       0.00010637      -0.00003740      -0.00136720 </v>
   <v>      -0.00010637       0.00003740       0.00136720 </v>
  </varray>
  <varray name="stress" >
   <v>      -0.21406018       0.00012548       0.00000357 </v>
   <v>       0.00012548      -0.21419484      -0.00000031 </v>
   <v>       0.00000357      -0.00000031       0.24420230 </v>
  </varray>
  <energy>
   <i name="e_fr_energy">     -6.75276186 </i>
   <i name="e_wo_entrp">     -6.75469449 </i>
   <i name="e_0_energy">      0.00579791 </i>
  </energy>
  <time name="totalsc">    1.02    1.03</time>
  <eigenvalues>
   <array>
    <dimension dim="1">band</dimension>
    <dimension dim="2">kpoint</dimension>
    <dimension dim="3">spin</dimension>
    <field>eigene</field>
    <field>occ</field>
    <set>
     <set comment="spin 1">
      <set comment="kpoint 1">
       <r>  -10.3175    1.0003 </r>
       <r>   -0.1563    0.0000 </r>
       <r>    0.0050    0.0000 </r>
       <r>    0.0680    0.0000 </r>
       <r>    0.3279    0.0000 </r>
       <r>    0.5238    0.0000 </r>
       <r>    0.8143    0.0000 </r>
       <r>    0.9435    0.0000 </r>
      </set>
      <set comment="kpoint 2">
       <r>  -10.3173    0.9999 </r>
       <r>   -0.0661    0.0000 </r>
       <r>    0.0822    0.0000 </r>
       <r>    0.1657    0.0000 </r>
       <r>    0.3906    0.0000 </r>
       <r>    0.6022    0.0000 </r>
       <r>    0.6386    0.0000 </r>
       <r>    0.8328    0.0000 </r>
      </set>
      <set comment="kpoint 3">
       <r>  -10.3173    0.9999 </r>
       <r>    0.1878    0.0000 </r>
       <r>    0.2024    0.0000 </r>
       <r>    0.2147    0.0000 </r>
       <r>    0.4581    0.0000 </r>
       <r>    0.4615    0.0000 </r>
       <r>    0.5080    0.0000 </r>
       <r>    0.6305    0.0000 </r>
      </set>
      <set comment="kpoint 4">
       <r>  -10.3173    0.9999 </r>
       <r>   -0.0661    0.0000 </r>
       <r>    0.0822    0.0000 </r>
       <r>    0.1657    0.0000 </r>
       <r>    0.3906    0.0000 </r>
       <r>    0.6023    0.0000 </r>
       <r>    0.6385    0.0000 </r>
       <r>    0.8328    0.0000 </r>
      </set>
      <set comment="kpoint 5">
       <r>  -10.3173    0.9999 </r>
       <r>   -0.0661    0.0000 </r>
       <r>    0.0822    0.0000 </r>
       <r>    0.1657    0.0000 </r>
       <r>    0.3906    0.0000 </r>
       <r>    0.6024    0.0000 </r>
       <r>    0.6387    0.0000 </r>
       <r>    0.8319    0.0000 </r>
      </set>
      <set comment="kpoint 6">
       <r>  -10.3173    1.0001 </r>
       <r>    0.1127    0.0000 </r>
       <r>    0.1933    0.0000 </r>
       <r>    0.3607    0.0000 </r>
       <r>    0.4520    0.0000 </r>
       <r>    0.4686    0.0000 </r>
       <r>    0.5007    0.0000 </r>
       <r>    0.7533    0.0000 </r>
      </set>
      <set comment="kpoint 7">
       <r>  -10.3173    1.0001 </r>
       <r>    0.1127    0.0000 </r>
       <r>    0.1933    0.0000 </r>
       <r>    0.3607    0.0000 </r>
       <r>    0.4520    0.0000 </r>
       <r>    0.4687    0.0000 </r>
       <r>    0.5007    0.0000 </r>
       <r>    0.7535    0.0000 </r>
      </set>
      <set comment="kpoint 8">
       <r>  -10.3173    0.9999 </r>
       <r>    0.1879    0.0000 </r>
       <r>    0.2024    0.0000 </r>
       <r>    0.2146    0.0000 </r>
       <r>    0.4581    0.0000 </r>
       <r>    0.4615    0.0000 </r>
       <r>    0.5080    0.0000 </r>
       <r>    0.6305    0.0000 </r>
      </set>
      <set comment="kpoint 9">
       <r>  -10.3173    1.0001 </r>
       <r>    0.1127    0.0000 </r>
       <r>    0.1933    0.0000 </r>
       <r>    0.3607    0.0000 </r>
       <r>    0.4521    0.0000 </r>
       <r>    0.4685    0.0000 </r>
       <r>    0.5007    0.0000 </r>
       <r>    0.7533    0.0000 </r>
      </set>
      <set comment="kpoint 10">
       <r>  -10.3173    0.9999 </r>
       <r>    0.1878    0.0000 </r>
       <r>    0.2025    0.0000 </r>
       <r>    0.2148    0.0000 </r>
       <r>    0.4581    0.0000 </r>
       <r>    0.4616    0.0000 </r>
       <r>    0.5079    0.0000 </r>
       <r>    0.6305    0.0000 </r>
      </set>
     </set>
    </set>
   </array>
  </eigenvalues>
  <separator name="orbital magnetization" >
   <v name="MAGDIPOLOUT">      0.00000000      0.00000000      0.00000000</v>
  </separator>
  <dos>
   <i name="efermi">    -10.23312170 </i>
   <total>
    <array>
     <dimension dim="1">gridpoints</dimension>
     <dimension dim="2">spin</dimension>
     <field>energy</field>
     <field>total</field>
     <field>integrated</field>
     <set>
      <set comment="spin 1">
       <r>   -11.3175     0.0000     0.0000 </r>
       <r>   -11.2733     0.0000     0.0000 </r>
       <r>   -11.2291     0.0000     0.0000 </r>
       <r>   -11.1849     0.0000     0.0000 </r>
       <r>   -11.1407    -0.0000    -0.0000 </r>
       <r>   -11.0965    -0.0000    -0.0000 </r>
       <r>   -11.0523    -0.0000    -0.0000 </r>
       <r>   -11.0080    -0.0000    -0.0000 </r>
       <r>   -10.9638    -0.0000    -0.0000 </r>
       <r>   -10.9196    -0.0000    -0.0000 </r>
       <r>   -10.8754    -0.0000    -0.0000 </r>
       <r>   -10.8312    -0.0000    -0.0000 </r>
       <r>   -10.7870    -0.0000    -0.0000 </r>
       <r>   -10.7428    -0.0000    -0.0000 </r>
       <r>   -10.6986    -0.0000    -0.0000 </r>
       <r>   -10.6544    -0.0004    -0.0000 </r>
       <r>   -10.6102    -0.0058    -0.0003 </r>
       <r>   -10.5660    -0.0493    -0.0025 </r>
       <r>   -10.5218    -0.2564    -0.0138 </r>
       <r>   -10.4776    -0.7255    -0.0459 </r>
       <r>   -10.4334    -0.5361    -0.0695 </r>
       <r>   -10.3892     3.0978     0.0674 </r>
       <r>   -10.3450    10.9332     0.5507 </r>
       <r>   -10.3008    16.3935     1.2753 </r>
       <r>   -10.2566    12.9198     1.8464 </r>
       <r>   -10.2124     4.8099     2.0590 </r>
       <r>   -10.1682    -0.0664     2.0561 </r>
       <r>   -10.1240    -0.8227     2.0197 </r>
       <r>   -10.0798    -0.3563     2.0040 </r>
       <r>   -10.0356    -0.0785     2.0005 </r>
       <r>    -9.9914    -0.0104     2.0000 </r>
       <r>    -9.9472    -0.0009     2.0000 </r>
       <r>    -9.9030    -0.0000     2.0000 </r>
       <r>    -9.8588    -0.0000     2.0000 </r>
       <r>    -9.8146    -0.0000     2.0000 </r>
       <r>    -9.7704    -0.0000     2.0000 </r>
       <r>    -9.7262    -0.0000     2.0000 </r>
       <r>    -9.6820    -0.0000     2.0000 </r>
       <r>    -9.6377     0.0000     2.0000 </r>
       <r>    -9.5935     0.0000     2.0000 </r>
       <r>    -9.5493     0.0000     2.0000 </r>
       <r>    -9.5051     0.0000     2.0000 </r>
       <r>    -9.4609     0.0000     2.0000 </r>
       <r>    -9.4167     0.0000     2.0000 </r>
       <r>    -9.3725     0.0000     2.0000 </r>
       <r>    -9.3283     0.0000     2.0000 </r>
       <r>    -9.2841     0.0000     2.0000 </r>
       <r>    -9.2399     0.0000     2.0000 </r>
       <r>    -9.1957     0.0000     2.0000 </r>
       <r>    -9.1515     0.0000     2.0000 </r>
       <r>    -9.1073     0.0000     2.0000 </r>
       <r>    -9.0631     0.0000     2.0000 </r>
       <r>    -9.0189     0.0000     2.0000 </r>
       <r>    -8.9747     0.0000     2.0000 </r>
       <r>    -8.9305     0.0000     2.0000 </r>
       <r>    -8.8863     0.0000     2.0000 </r>
       <r>    -8.8421     0.0000     2.0000 </r>
       <r>    -8.7979     0.0000     2.0000 </r>
       <r>    -8.7537     0.0000     2.0000 </r>
       <r>    -8.7095     0.0000     2.0000 </r>
       <r>    -8.6653     0.0000     2.0000 </r>
       <r>    -8.6211     0.0000     2.0000 </r>
       <r>    -8.5769     0.0000     2.0000 </r>
       <r>    -8.5327     0.0000     2.0000 </r>
       <r>    -8.4885     0.0000     2.0000 </r>
       <r>    -8.4443     0.0000     2.0000 </r>
       <r>    -8.4001     0.0000     2.0000 </r>
       <r>    -8.3559     0.0000     2.0000 </r>
       <r>    -8.3117     0.0000     2.0000 </r>
       <r>    -8.2675     0.0000     2.0000 </r>
       <r>    -8.2232     0.0000     2.0000 </r>
       <r>    -8.1790     0.0000     2.0000 </r>
       <r>    -8.1348     0.0000     2.0000 </r>
       <r>    -8.0906     0.0000     2.0000 </r>
       <r>    -8.0464     0.0000     2.0000 </r>
       <r>    -8.0022     0.0000     2.0000 </r>
       <r>    -7.9580     0.0000     2.0000 </r>
       <r>    -7.9138     0.0000     2.0000 </r>
       <r>    -7.8696     0.0000     2.0000 </r>
       <r>    -7.8254     0.0000     2.0000 </r>
       <r>    -7.7812     0.0000     2.0000 </r>
       <r>    -7.7370     0.0000     2.0000 </r>
       <r>    -7.6928     0.0000     2.0000 </r>
       <r>    -7.6486     0.0000     2.0000 </r>
       <r>    -7.6044     0.0000     2.0000 </r>
       <r>    -7.5602     0.0000     2.0000 </r>
       <r>    -7.5160     0.0000     2.0000 </r>
       <r>    -7.4718     0.0000     2.0000 </r>
       <r>    -7.4276     0.0000     2.0000 </r>
       <r>    -7.3834     0.0000     2.0000 </r>
       <r>    -7.3392     0.0000     2.0000 </r>
       <r>    -7.2950     0.0000     2.0000 </r>
       <r>    -7.2508     0.0000     2.0000 </r>
       <r>    -7.2066     0.0000     2.0000 </r>
       <r>    -7.1624     0.0000     2.0000 </r>
       <r>    -7.1182     0.0000     2.0000 </r>
       <r>    -7.0740     0.0000     2.0000 </r>
       <r>    -7.0298     0.0000     2.0000 </r>
       <r>    -6.9856     0.0000     2.0000 </r>
       <r>    -6.9414     0.0000     2.0000 </r>
       <r>    -6.8972     0.0000     2.0000 </r>
       <r>    -6.8530     0.0000     2.0000 </r>
       <r>    -6.8087     0.0000     2.0000 </r>
       <r>    -6.7645     0.0000     2.0000 </r>
       <r>    -6.7203     0.0000     2.0000 </r>
       <r>    -6.6761     0.0000     2.0000 </r>
       <r>    -6.6319     0.0000     2.0000 </r>
       <r>    -6.5877     0.0000     2.0000 </r>
       <r>    -6.5435     0.0000     2.0000 </r>
       <r>    -6.4993     0.0000     2.0000 </r>
       <r>    -6.4551     0.0000     2.0000 </r>
       <r>    -6.4109     0.0000     2.0000 </r>
       <r>    -6.3667     0.0000     2.0000 </r>
       <r>    -6.3225     0.0000     2.0000 </r>
       <r>    -6.2783     0.0000     2.0000 </r>
       <r>    -6.2341     0.0000     2.0000 </r>
       <r>    -6.1899     0.0000     2.0000 </r>
       <r>    -6.1457     0.0000     2.0000 </r>
       <r>    -6.1015     0.0000     2.0000 </r>
       <r>    -6.0573     0.0000     2.0000 </r>
       <r>    -6.0131     0.0000     2.0000 </r>
       <r>    -5.9689     0.0000     2.0000 </r>
       <r>    -5.9247     0.0000     2.0000 </r>
       <r>    -5.8805     0.0000     2.0000 </r>
       <r>    -5.8363     0.0000     2.0000 </r>
       <r>    -5.7921     0.0000     2.0000 </r>
       <r>    -5.7479     0.0000     2.0000 </r>
       <r>    -5.7037     0.0000     2.0000 </r>
       <r>    -5.6595     0.0000     2.0000 </r>
       <r>    -5.6153     0.0000     2.0000 </r>
       <r>    -5.5711     0.0000     2.0000 </r>
       <r>    -5.5269     0.0000     2.0000 </r>
       <r>    -5.4827     0.0000     2.0000 </r>
       <r>    -5.4384     0.0000     2.0000 </r>
       <r>    -5.3942     0.0000     2.0000 </r>
       <r>    -5.3500     0.0000     2.0000 </r>
       <r>    -5.3058     0.0000     2.0000 </r>
       <r>    -5.2616     0.0000     2.0000 </r>
       <r>    -5.2174     0.0000     2.0000 </r>
       <r>    -5.1732     0.0000     2.0000 </r>
       <r>    -5.1290     0.0000     2.0000 </r>
       <r>    -5.0848     0.0000     2.0000 </r>
       <r>    -5.0406     0.0000     2.0000 </r>
       <r>    -4.9964     0.0000     2.0000 </r>
       <r>    -4.9522     0.0000     2.0000 </r>
       <r>    -4.9080     0.0000     2.0000 </r>
       <r>    -4.8638     0.0000     2.0000 </r>
       <r>    -4.8196     0.0000     2.0000 </r>
       <r>    -4.7754     0.0000     2.0000 </r>
       <r>    -4.7312     0.0000     2.0000 </r>
       <r>    -4.6870     0.0000     2.0000 </r>
       <r>    -4.6428     0.0000     2.0000 </r>
       <r>    -4.5986     0.0000     2.0000 </r>
       <r>    -4.5544     0.0000     2.0000 </r>
       <r>    -4.5102     0.0000     2.0000 </r>
       <r>    -4.4660     0.0000     2.0000 </r>
       <r>    -4.4218     0.0000     2.0000 </r>
       <r>    -4.3776     0.0000     2.0000 </r>
       <r>    -4.3334     0.0000     2.0000 </r>
       <r>    -4.2892     0.0000     2.0000 </r>
       <r>    -4.2450     0.0000     2.0000 </r>
       <r>    -4.2008     0.0000     2.0000 </r>
       <r>    -4.1566     0.0000     2.0000 </r>
       <r>    -4.1124     0.0000     2.0000 </r>
       <r>    -4.0682     0.0000     2.0000 </r>
       <r>    -4.0239     0.0000     2.0000 </r>
       <r>    -3.9797     0.0000     2.0000 </r>
       <r>    -3.9355     0.0000     2.0000 </r>
       <r>    -3.8913     0.0000     2.0000 </r>
       <r>    -3.8471     0.0000     2.0000 </r>
       <r>    -3.8029     0.0000     2.0000 </r>
       <r>    -3.7587     0.0000     2.0000 </r>
       <r>    -3.7145     0.0000     2.0000 </r>
       <r>    -3.6703     0.0000     2.0000 </r>
       <r>    -3.6261     0.0000     2.0000 </r>
       <r>    -3.5819     0.0000     2.0000 </r>
       <r>    -3.5377     0.0000     2.0000 </r>
       <r>    -3.4935     0.0000     2.0000 </r>
       <r>    -3.4493     0.0000     2.0000 </r>
       <r>    -3.4051     0.0000     2.0000 </r>
       <r>    -3.3609     0.0000     2.0000 </r>
       <r>    -3.3167     0.0000     2.0000 </r>
       <r>    -3.2725     0.0000     2.0000 </r>
       <r>    -3.2283     0.0000     2.0000 </r>
       <r>    -3.1841     0.0000     2.0000 </r>
       <r>    -3.1399     0.0000     2.0000 </r>
       <r>    -3.0957     0.0000     2.0000 </r>
       <r>    -3.0515     0.0000     2.0000 </r>
       <r>    -3.0073     0.0000     2.0000 </r>
       <r>    -2.9631     0.0000     2.0000 </r>
       <r>    -2.9189     0.0000     2.0000 </r>
       <r>    -2.8747     0.0000     2.0000 </r>
       <r>    -2.8305     0.0000     2.0000 </r>
       <r>    -2.7863     0.0000     2.0000 </r>
       <r>    -2.7421     0.0000     2.0000 </r>
       <r>    -2.6979     0.0000     2.0000 </r>
       <r>    -2.6537     0.0000     2.0000 </r>
       <r>    -2.6094     0.0000     2.0000 </r>
       <r>    -2.5652     0.0000     2.0000 </r>
       <r>    -2.5210     0.0000     2.0000 </r>
       <r>    -2.4768     0.0000     2.0000 </r>
       <r>    -2.4326     0.0000     2.0000 </r>
       <r>    -2.3884     0.0000     2.0000 </r>
       <r>    -2.3442     0.0000     2.0000 </r>
       <r>    -2.3000     0.0000     2.0000 </r>
       <r>    -2.2558     0.0000     2.0000 </r>
       <r>    -2.2116     0.0000     2.0000 </r>
       <r>    -2.1674     0.0000     2.0000 </r>
       <r>    -2.1232     0.0000     2.0000 </r>
       <r>    -2.0790     0.0000     2.0000 </r>
       <r>    -2.0348     0.0000     2.0000 </r>
       <r>    -1.9906     0.0000     2.0000 </r>
       <r>    -1.9464     0.0000     2.0000 </r>
       <r>    -1.9022     0.0000     2.0000 </r>
       <r>    -1.8580     0.0000     2.0000 </r>
       <r>    -1.8138     0.0000     2.0000 </r>
       <r>    -1.7696     0.0000     2.0000 </r>
       <r>    -1.7254     0.0000     2.0000 </r>
       <r>    -1.6812     0.0000     2.0000 </r>
       <r>    -1.6370     0.0000     2.0000 </r>
       <r>    -1.5928     0.0000     2.0000 </r>
       <r>    -1.5486     0.0000     2.0000 </r>
       <r>    -1.5044     0.0000     2.0000 </r>
       <r>    -1.4602     0.0000     2.0000 </r>
       <r>    -1.4160     0.0000     2.0000 </r>
       <r>    -1.3718     0.0000     2.0000 </r>
       <r>    -1.3276     0.0000     2.0000 </r>
       <r>    -1.2834     0.0000     2.0000 </r>
       <r>    -1.2392     0.0000     2.0000 </r>
       <r>    -1.1949     0.0000     2.0000 </r>
       <r>    -1.1507     0.0000     2.0000 </r>
       <r>    -1.1065     0.0000     2.0000 </r>
       <r>    -1.0623     0.0000     2.0000 </r>
       <r>    -1.0181     0.0000     2.0000 </r>
       <r>    -0.9739    -0.0000     2.0000 </r>
       <r>    -0.9297    -0.0000     2.0000 </r>
       <r>    -0.8855    -0.0000     2.0000 </r>
       <r>    -0.8413    -0.0000     2.0000 </r>
       <r>    -0.7971    -0.0000     2.0000 </r>
       <r>    -0.7529    -0.0000     2.0000 </r>
       <r>    -0.7087    -0.0000     2.0000 </r>
       <r>    -0.6645    -0.0000     2.0000 </r>
       <r>    -0.6203    -0.0000     2.0000 </r>
       <r>    -0.5761    -0.0000     2.0000 </r>
       <r>    -0.5319    -0.0000     2.0000 </r>
       <r>    -0.4877    -0.0000     2.0000 </r>
       <r>    -0.4435    -0.0005     2.0000 </r>
       <r>    -0.3993    -0.0041     1.9998 </r>
       <r>    -0.3551    -0.0217     1.9988 </r>
       <r>    -0.3109    -0.0708     1.9957 </r>
       <r>    -0.2667    -0.1301     1.9900 </r>
       <r>    -0.2225    -0.0496     1.9878 </r>
       <r>    -0.1783     0.5533     2.0122 </r>
       <r>    -0.1341     2.2470     2.1115 </r>
       <r>    -0.0899     4.7627     2.3221 </r>
       <r>    -0.0457     6.0894     2.5912 </r>
       <r>    -0.0015     5.5976     2.8387 </r>
       <r>     0.0427     6.7615     3.1376 </r>
       <r>     0.0869    12.1448     3.6744 </r>
       <r>     0.1311    19.4485     4.5341 </r>
       <r>     0.1754    24.1472     5.6015 </r>
       <r>     0.2196    21.7111     6.5612 </r>
       <r>     0.2638    12.7858     7.1263 </r>
       <r>     0.3080     6.1737     7.3992 </r>
       <r>     0.3522     8.2777     7.7651 </r>
       <r>     0.3964    16.3726     8.4888 </r>
       <r>     0.4406    24.9512     9.5918 </r>
       <r>     0.4848    28.5264    10.8527 </r>
       <r>     0.5290    23.9711    11.9123 </r>
       <r>     0.5732    17.0401    12.6656 </r>
       <r>     0.6174    14.4230    13.3031 </r>
       <r>     0.6616    13.0815    13.8813 </r>
       <r>     0.7058     9.8145    14.3152 </r>
       <r>     0.7500     8.1363    14.6748 </r>
       <r>     0.7942     9.2837    15.0852 </r>
       <r>     0.8384     9.5444    15.5071 </r>
       <r>     0.8826     6.8423    15.8095 </r>
       <r>     0.9268     3.1994    15.9510 </r>
       <r>     0.9710     1.0191    15.9960 </r>
       <r>     1.0152     0.2545    16.0073 </r>
       <r>     1.0594    -0.0090    16.0069 </r>
       <r>     1.1036    -0.0823    16.0032 </r>
       <r>     1.1478    -0.0526    16.0009 </r>
       <r>     1.1920    -0.0168    16.0002 </r>
       <r>     1.2362    -0.0031    16.0000 </r>
       <r>     1.2804    -0.0004    16.0000 </r>
       <r>     1.3246    -0.0000    16.0000 </r>
       <r>     1.3688    -0.0000    16.0000 </r>
       <r>     1.4130    -0.0000    16.0000 </r>
       <r>     1.4572    -0.0000    16.0000 </r>
       <r>     1.5014    -0.0000    16.0000 </r>
       <r>     1.5456    -0.0000    16.0000 </r>
       <r>     1.5899    -0.0000    16.0000 </r>
       <r>     1.6341     0.0000    16.0000 </r>
       <r>     1.6783     0.0000    16.0000 </r>
       <r>     1.7225     0.0000    16.0000 </r>
       <r>     1.7667     0.0000    16.0000 </r>
       <r>     1.8109     0.0000    16.0000 </r>
       <r>     1.8551     0.0000    16.0000 </r>
       <r>     1.8993     0.0000    16.0000 </r>
       <r>     1.9435     0.0000    16.0000 </r>
      </set>
     </set>
    </array>
   </total>
  </dos>
 </calculation>
 <structure name="finalpos" >
  <crystal>
   <varray name="basis" >
    <v>      11.21435918       0.00000000       0.00000000 </v>
    <v>       5.60717866       9.71191963       0.00000000 </v>
    <v>       0.00000000       0.00000000      31.44560795 </v>
   </varray>
   <i name="volume">   3424.83408825 </i>
   <varray name="rec_basis" >
    <v>       0.08917139      -0.05148312       0.00000000 </v>
    <v>       0.00000000       0.10296626       0.00000000 </v>
    <v>       0.00000000       0.00000000       0.03180094 </v>
   </varray>
  </crystal>
  <varray name="positions" >
   <v>       0.18844173       0.51483125       0.17094480 </v>
   <v>       0.18844098       0.51483131       0.14706463 </v>
  </varray>
 </structure>
</modeling>
