Pt                                      
           1
    11.214359    0.000000    0.000000
     5.607179    9.711920    0.000000
     0.000000    0.000000   31.445608
   H 
   2
Direct configuration=     1
   0.18844136  0.51483128  0.17072600
   0.18844136  0.51483128  0.14728343
Direct configuration=     2
   0.18844265  0.51483119  0.17147487
   0.18844006  0.51483137  0.14653457
Direct configuration=     3
   0.18844173  0.51483125  0.17094480
   0.18844098  0.51483131  0.14706463
