<?xml version="1.0" encoding="ISO-8859-1"?>
<modeling>
 <generator>
  <i name="program" type="string">vasp </i>
  <i name="version" type="string">5.4.4.18Apr17-6-g9f103f2a35  </i>
  <i name="subversion" type="string">(build May 23 2022 10:35:18) complex            parallel </i>
  <i name="platform" type="string">IFC18_impi </i>
  <i name="date" type="string">2023 06 19 </i>
  <i name="time" type="string">17:12:46 </i>
 </generator>
 <incar>
  <i type="string" name="SYSTEM"> Pt</i>
  <i type="int" name="ISTART">     0</i>
  <i type="string" name="PREC">med   normal | accurate</i>
  <i type="string" name="ALGO">  Fast    Normal, Fast, Very_Fast</i>
  <i type="int" name="ICHARG">     2</i>
  <i type="int" name="INIWAV">     1</i>
  <i type="int" name="NELM">   100</i>
  <i type="int" name="IBRION">     2</i>
  <i name="EDIFF">      0.00001000</i>
  <i type="int" name="NSW">   200</i>
  <i type="int" name="ISIF">     1</i>
  <i type="int" name="ISYM">     0</i>
  <i name="ENCUT">    400.00000000</i>
  <i type="string" name="LREAL">  Auto     real-space projection (.FALSE</i>
  <i type="int" name="ISMEAR">     1</i>
  <i name="SIGMA">      0.10000000</i>
  <i type="int" name="NWRITE">     2</i>
  <i type="logical" name="LWAVE"> F  </i>
  <i type="logical" name="LCHARG"> F  </i>
  <i type="logical" name="LAECHG"> F  </i>
  <v type="int" name="KPOINT_BSE">    -1     0     0     0</v>
  <i type="int" name="NELM">   100</i>
 </incar>
 <structure name="primitive_cell" >
  <crystal>
   <varray name="basis" >
    <v>      11.21435918       0.00000000       0.00000000 </v>
    <v>       5.60717866       9.71191963       0.00000000 </v>
    <v>       0.00000000       0.00000000      31.44560795 </v>
   </varray>
   <i name="volume">   3424.83408825 </i>
   <varray name="rec_basis" >
    <v>       0.08917139      -0.05148312       0.00000000 </v>
    <v>       0.00000000       0.10296626       0.00000000 </v>
    <v>       0.00000000       0.00000000       0.03180094 </v>
   </varray>
  </crystal>
  <varray name="positions" >
   <v>       0.08333331       0.33333334       0.39080566 </v>
   <v>       0.08333331       0.08333334       0.39080566 </v>
   <v>       0.08333331      -0.41666666       0.39080566 </v>
   <v>       0.16666661       0.41666668       0.46360189 </v>
   <v>      -0.16666669       0.33333334       0.39080566 </v>
   <v>       0.33333331       0.33333334       0.39080566 </v>
   <v>       0.16666661       0.16666669       0.46360189 </v>
   <v>      -0.16666669      -0.41666666       0.39080566 </v>
   <v>       0.33333331       0.08333334       0.39080566 </v>
   <v>      -0.08333339       0.41666668       0.46360189 </v>
   <v>       0.41666661       0.16666668       0.46360189 </v>
   <v>      -0.08333339      -0.33333332       0.46360189 </v>
   <v>      -0.08333339       0.16666668       0.46360189 </v>
   <v>       0.16666661      -0.33333331       0.46360189 </v>
   <v>      -0.16666669       0.08333334       0.39080566 </v>
   <v>       0.33333331      -0.41666666       0.39080566 </v>
   <v>       0.41666661       0.41666668       0.46360189 </v>
   <v>       0.33333331      -0.16666666       0.39080566 </v>
   <v>       0.16666661      -0.08333332       0.46360189 </v>
   <v>      -0.16666669      -0.16666666       0.39080566 </v>
   <v>       0.41666661      -0.08333332       0.46360189 </v>
   <v>       0.24999992       0.25000003      -0.46360189 </v>
   <v>      -0.41666669       0.08333334       0.39080566 </v>
   <v>      -0.41666669      -0.41666666       0.39080566 </v>
   <v>      -0.00000008      -0.49999997      -0.46360189 </v>
   <v>      -0.00000008       0.25000002      -0.46360189 </v>
   <v>      -0.33333339       0.41666668       0.46360189 </v>
   <v>      -0.33333339      -0.33333331       0.46360189 </v>
   <v>       0.08333331      -0.16666666       0.39080566 </v>
   <v>       0.24999992      -0.49999997      -0.46360189 </v>
   <v>      -0.41666669       0.33333334       0.39080566 </v>
   <v>       0.24999992       0.00000003      -0.46360189 </v>
   <v>      -0.41666669      -0.16666666       0.39080566 </v>
   <v>      -0.25000008      -0.49999997      -0.46360189 </v>
   <v>      -0.08333339      -0.08333332       0.46360189 </v>
   <v>       0.49999992       0.25000002      -0.46360189 </v>
   <v>      -0.33333339       0.16666669       0.46360189 </v>
   <v>       0.49999992       0.00000003      -0.46360189 </v>
   <v>      -0.00000008      -0.24999998      -0.46360189 </v>
   <v>      -0.33333339      -0.08333332       0.46360189 </v>
   <v>      -0.00000008       0.00000003      -0.46360189 </v>
   <v>      -0.25000008      -0.24999997      -0.46360189 </v>
   <v>      -0.25000008       0.25000003      -0.46360189 </v>
   <v>       0.41666661      -0.33333332       0.46360189 </v>
   <v>       0.08333322       0.33333337      -0.39080566 </v>
   <v>       0.24999992      -0.24999997      -0.46360189 </v>
   <v>       0.49999992      -0.49999997      -0.46360189 </v>
   <v>       0.49999992      -0.24999998      -0.46360189 </v>
   <v>       0.33333322       0.33333337      -0.39080566 </v>
   <v>       0.33333322       0.08333337      -0.39080566 </v>
   <v>       0.08333322      -0.41666663      -0.39080566 </v>
   <v>       0.08333322       0.08333337      -0.39080566 </v>
   <v>      -0.16666678      -0.41666663      -0.39080566 </v>
   <v>      -0.16666678       0.33333337      -0.39080566 </v>
   <v>      -0.25000008       0.00000003      -0.46360189 </v>
   <v>       0.33333322      -0.41666663      -0.39080566 </v>
   <v>      -0.41666678       0.08333337      -0.39080566 </v>
   <v>       0.33333322      -0.16666663      -0.39080566 </v>
   <v>      -0.16666678      -0.16666663      -0.39080566 </v>
   <v>      -0.16666678       0.08333337      -0.39080566 </v>
   <v>      -0.41666678      -0.41666663      -0.39080566 </v>
   <v>      -0.41666678       0.33333337      -0.39080566 </v>
   <v>       0.08333322      -0.16666663      -0.39080566 </v>
   <v>      -0.41666678      -0.16666663      -0.39080566 </v>
  </varray>
 </structure>
 <varray name="primitive_index" >
  <v type="int" >        1 </v>
  <v type="int" >        2 </v>
  <v type="int" >       18 </v>
  <v type="int" >        8 </v>
  <v type="int" >       35 </v>
  <v type="int" >        3 </v>
  <v type="int" >        7 </v>
  <v type="int" >       52 </v>
  <v type="int" >        4 </v>
  <v type="int" >       38 </v>
  <v type="int" >        5 </v>
  <v type="int" >       53 </v>
  <v type="int" >       37 </v>
  <v type="int" >       23 </v>
  <v type="int" >       36 </v>
  <v type="int" >       20 </v>
  <v type="int" >        6 </v>
  <v type="int" >       19 </v>
  <v type="int" >       24 </v>
  <v type="int" >       51 </v>
  <v type="int" >       22 </v>
  <v type="int" >       10 </v>
  <v type="int" >       34 </v>
  <v type="int" >       50 </v>
  <v type="int" >       59 </v>
  <v type="int" >       44 </v>
  <v type="int" >       40 </v>
  <v type="int" >       55 </v>
  <v type="int" >       17 </v>
  <v type="int" >       25 </v>
  <v type="int" >       33 </v>
  <v type="int" >        9 </v>
  <v type="int" >       49 </v>
  <v type="int" >       57 </v>
  <v type="int" >       54 </v>
  <v type="int" >       12 </v>
  <v type="int" >       39 </v>
  <v type="int" >       11 </v>
  <v type="int" >       60 </v>
  <v type="int" >       56 </v>
  <v type="int" >       43 </v>
  <v type="int" >       58 </v>
  <v type="int" >       42 </v>
  <v type="int" >       21 </v>
  <v type="int" >       13 </v>
  <v type="int" >       26 </v>
  <v type="int" >       27 </v>
  <v type="int" >       28 </v>
  <v type="int" >       15 </v>
  <v type="int" >       16 </v>
  <v type="int" >       30 </v>
  <v type="int" >       14 </v>
  <v type="int" >       64 </v>
  <v type="int" >       47 </v>
  <v type="int" >       41 </v>
  <v type="int" >       32 </v>
  <v type="int" >       46 </v>
  <v type="int" >       31 </v>
  <v type="int" >       63 </v>
  <v type="int" >       48 </v>
  <v type="int" >       62 </v>
  <v type="int" >       45 </v>
  <v type="int" >       29 </v>
  <v type="int" >       61 </v>
 </varray>
 <kpoints>
  <generation param="Gamma">
   <v type="int" name="divisions">       4        4        1 </v>
   <v name="usershift">      0.00000000       0.00000000       0.00000000 </v>
   <v name="genvec1">      0.25000000      -0.00000000       0.00000000 </v>
   <v name="genvec2">      0.00000000       0.25000000       0.00000000 </v>
   <v name="genvec3">      0.00000000       0.00000000       1.00000000 </v>
   <v name="shift">      0.00000000       0.00000000       0.00000000 </v>
  </generation>
  <varray name="kpointlist" >
   <v>       0.00000000       0.00000000       0.00000000 </v>
   <v>       0.25000000      -0.00000000       0.00000000 </v>
   <v>       0.50000000      -0.00000000       0.00000000 </v>
   <v>       0.00000000       0.25000000       0.00000000 </v>
   <v>       0.25000000       0.25000000       0.00000000 </v>
   <v>       0.50000000       0.25000000       0.00000000 </v>
   <v>      -0.25000000       0.25000000       0.00000000 </v>
   <v>       0.00000000       0.50000000       0.00000000 </v>
   <v>       0.25000000       0.50000000       0.00000000 </v>
   <v>       0.50000000       0.50000000       0.00000000 </v>
  </varray>
  <varray name="weights" >
   <v>       0.06250000 </v>
   <v>       0.12500000 </v>
   <v>       0.06250000 </v>
   <v>       0.12500000 </v>
   <v>       0.12500000 </v>
   <v>       0.12500000 </v>
   <v>       0.12500000 </v>
   <v>       0.06250000 </v>
   <v>       0.12500000 </v>
   <v>       0.06250000 </v>
  </varray>
 </kpoints>
 <parameters>
  <separator name="general" >
   <i type="string" name="SYSTEM">Pt</i>
   <i type="logical" name="LCOMPAT"> F  </i>
  </separator>
  <separator name="electronic" >
   <i type="string" name="PREC">med</i>
   <i name="ENMAX">    400.00000000</i>
   <i name="ENAUG">    358.96600000</i>
   <i name="EDIFF">      0.00001000</i>
   <i type="int" name="IALGO">    68</i>
   <i type="int" name="IWAVPR">    11</i>
   <i type="int" name="NBANDS">   384</i>
   <i name="NELECT">    640.00000000</i>
   <i type="int" name="TURBO">     0</i>
   <i type="int" name="IRESTART">     0</i>
   <i type="int" name="NREBOOT">     0</i>
   <i type="int" name="NMIN">     0</i>
   <i name="EREF">      0.00000000</i>
   <separator name="electronic smearing" >
    <i type="int" name="ISMEAR">     1</i>
    <i name="SIGMA">      0.10000000</i>
    <i name="KSPACING">      0.50000000</i>
    <i type="logical" name="KGAMMA"> T  </i>
   </separator>
   <separator name="electronic projectors" >
    <i type="logical" name="LREAL"> T  </i>
    <v name="ROPT">     -0.00200000</v>
    <i type="int" name="LMAXPAW">  -100</i>
    <i type="int" name="LMAXMIX">     2</i>
    <i type="logical" name="NLSPLINE"> F  </i>
   </separator>
   <separator name="electronic startup" >
    <i type="int" name="ISTART">     0</i>
    <i type="int" name="ICHARG">     2</i>
    <i type="int" name="INIWAV">     1</i>
   </separator>
   <separator name="electronic spin" >
    <i type="int" name="ISPIN">     1</i>
    <i type="logical" name="LNONCOLLINEAR"> F  </i>
    <v name="MAGMOM">      1.00000000      1.00000000      1.00000000      1.00000000      1.00000000      1.00000000      1.00000000      1.00000000      1.00000000      1.00000000      1.00000000      1.00000000      1.00000000      1.00000000      1.00000000      1.00000000      1.00000000      1.00000000      1.00000000      1.00000000
      1.00000000      1.00000000      1.00000000      1.00000000      1.00000000      1.00000000      1.00000000      1.00000000      1.00000000      1.00000000      1.00000000      1.00000000      1.00000000      1.00000000      1.00000000      1.00000000      1.00000000      1.00000000      1.00000000      1.00000000
      1.00000000      1.00000000      1.00000000      1.00000000      1.00000000      1.00000000      1.00000000      1.00000000      1.00000000      1.00000000      1.00000000      1.00000000      1.00000000      1.00000000      1.00000000      1.00000000      1.00000000      1.00000000      1.00000000      1.00000000
      1.00000000      1.00000000      1.00000000      1.00000000</v>
    <i name="NUPDOWN">     -1.00000000</i>
    <i type="logical" name="LSORBIT"> F  </i>
    <v name="SAXIS">      0.00000000      0.00000000      1.00000000</v>
    <i type="logical" name="LSPIRAL"> F  </i>
    <v name="QSPIRAL">      0.00000000      0.00000000      0.00000000</v>
    <i type="logical" name="LZEROZ"> F  </i>
   </separator>
   <separator name="electronic exchange-correlation" >
    <i type="logical" name="LASPH"> F  </i>
    <i type="logical" name="LMETAGGA"> F  </i>
   </separator>
   <separator name="electronic convergence" >
    <i type="int" name="NELM">   100</i>
    <i type="int" name="NELMDL">    -5</i>
    <i type="int" name="NELMIN">     2</i>
    <i name="ENINI">    400.00000000</i>
    <separator name="electronic convergence detail" >
     <i type="logical" name="LDIAG"> T  </i>
     <i type="logical" name="LSUBROT"> F  </i>
     <i name="WEIMIN">      0.00100000</i>
     <i name="EBREAK">      0.00000001</i>
     <i name="DEPER">      0.30000000</i>
     <i type="int" name="NRMM">     4</i>
     <i name="TIME">      0.40000000</i>
    </separator>
   </separator>
   <separator name="electronic mixer" >
    <i name="AMIX">      0.40000000</i>
    <i name="BMIX">      1.00000000</i>
    <i name="AMIN">      0.10000000</i>
    <i name="AMIX_MAG">      1.60000000</i>
    <i name="BMIX_MAG">      1.00000000</i>
    <separator name="electronic mixer details" >
     <i type="int" name="IMIX">     4</i>
     <i type="logical" name="MIXFIRST"> F  </i>
     <i type="int" name="MAXMIX">   -45</i>
     <i name="WC">    100.00000000</i>
     <i type="int" name="INIMIX">     1</i>
     <i type="int" name="MIXPRE">     1</i>
     <i type="int" name="MREMOVE">     5</i>
    </separator>
   </separator>
   <separator name="electronic dipolcorrection" >
    <i type="logical" name="LDIPOL"> F  </i>
    <i type="logical" name="LMONO"> F  </i>
    <i type="int" name="IDIPOL">     0</i>
    <i name="EPSILON">      1.00000000</i>
    <v name="DIPOL">   -100.00000000   -100.00000000   -100.00000000</v>
    <i name="EFIELD">      0.00000000</i>
   </separator>
  </separator>
  <separator name="grids" >
   <i type="int" name="NGX">    56</i>
   <i type="int" name="NGY">    56</i>
   <i type="int" name="NGZ">   160</i>
   <i type="int" name="NGXF">    70</i>
   <i type="int" name="NGYF">    70</i>
   <i type="int" name="NGZF">   196</i>
   <i type="logical" name="ADDGRID"> F  </i>
  </separator>
  <separator name="ionic" >
   <i type="int" name="NSW">   200</i>
   <i type="int" name="IBRION">     2</i>
   <i type="int" name="MDALGO">     0</i>
   <i type="int" name="ISIF">     1</i>
   <i name="PSTRESS">      0.00000000</i>
   <i name="EDIFFG">      0.00010000</i>
   <i type="int" name="NFREE">     1</i>
   <i name="POTIM">      0.50000000</i>
   <i name="SMASS">     -3.00000000</i>
   <i name="SCALEE">      1.00000000</i>
  </separator>
  <separator name="ionic md" >
   <i name="TEBEG">      0.00010000</i>
   <i name="TEEND">      0.00010000</i>
   <i type="int" name="NBLOCK">     1</i>
   <i type="int" name="KBLOCK">   200</i>
   <i type="int" name="NPACO">   256</i>
   <i name="APACO">     16.00000000</i>
  </separator>
  <separator name="symmetry" >
   <i type="int" name="ISYM">     0</i>
   <i name="SYMPREC">      0.00001000</i>
  </separator>
  <separator name="dos" >
   <i type="int" name="LORBIT">     0</i>
   <v name="RWIGS">     -1.00000000</v>
   <i type="int" name="NEDOS">   301</i>
   <i name="EMIN">     10.00000000</i>
   <i name="EMAX">    -10.00000000</i>
   <i name="EFERMI">      0.00000000</i>
  </separator>
  <separator name="writing" >
   <i type="int" name="NWRITE">     2</i>
   <i type="logical" name="LWAVE"> F  </i>
   <i type="logical" name="LDOWNSAMPLE"> F  </i>
   <i type="logical" name="LCHARG"> F  </i>
   <i type="logical" name="LPARD"> F  </i>
   <i type="logical" name="LVTOT"> F  </i>
   <i type="logical" name="LVHAR"> F  </i>
   <i type="logical" name="LELF"> F  </i>
   <i type="logical" name="LOPTICS"> F  </i>
   <v name="STM">      0.00000000      0.00000000      0.00000000      0.00000000      0.00000000      0.00000000      0.00000000</v>
  </separator>
  <separator name="performance" >
   <i type="int" name="NPAR">     8</i>
   <i type="int" name="NSIM">     4</i>
   <i type="int" name="NBLK">    -1</i>
   <i type="logical" name="LPLANE"> T  </i>
   <i type="logical" name="LSCALAPACK"> T  </i>
   <i type="logical" name="LSCAAWARE"> F  </i>
   <i type="logical" name="LSCALU"> F  </i>
   <i type="logical" name="LASYNC"> F  </i>
   <i type="logical" name="LORBITALREAL"> F  </i>
  </separator>
  <separator name="miscellaneous" >
   <i type="int" name="IDIOT">     3</i>
   <i type="int" name="ISPECIAL">     0</i>
   <i type="logical" name="LMUSIC"> F  </i>
   <v name="POMASS">    195.08000000</v>
   <v name="DARWINR">      0.00000000</v>
   <v name="DARWINV">      1.00000000</v>
   <i type="logical" name="LCORR"> T  </i>
  </separator>
  <i type="logical" name="GGA_COMPAT"> T  </i>
  <i type="logical" name="LBERRY"> F  </i>
  <i type="int" name="ICORELEVEL">     0</i>
  <i type="logical" name="LDAU"> F  </i>
  <i type="int" name="I_CONSTRAINED_M">     0</i>
  <separator name="electronic exchange-correlation" >
   <i type="string" name="GGA">--</i>
   <i type="int" name="VOSKOWN">     0</i>
   <i type="logical" name="LHFCALC"> F  </i>
   <i type="string" name="PRECFOCK"></i>
   <i type="logical" name="LSYMGRAD"> F  </i>
   <i type="logical" name="LHFONE"> F  </i>
   <i type="logical" name="LRHFCALC"> F  </i>
   <i type="logical" name="LTHOMAS"> F  </i>
   <i type="logical" name="LMODELHF"> F  </i>
   <i name="ENCUT4O">     -1.00000000</i>
   <i type="int" name="EXXOEP">     0</i>
   <i type="int" name="FOURORBIT">     0</i>
   <i name="AEXX">      0.00000000</i>
   <i name="HFALPHA">      0.00000000</i>
   <i name="MCALPHA">      0.00000000</i>
   <i name="ALDAX">      1.00000000</i>
   <i name="AGGAX">      1.00000000</i>
   <i name="ALDAC">      1.00000000</i>
   <i name="AGGAC">      1.00000000</i>
   <i type="int" name="NKREDX">     1</i>
   <i type="int" name="NKREDY">     1</i>
   <i type="int" name="NKREDZ">     1</i>
   <i type="logical" name="SHIFTRED"> F  </i>
   <i type="logical" name="ODDONLY"> F  </i>
   <i type="logical" name="EVENONLY"> F  </i>
   <i type="int" name="LMAXFOCK">     0</i>
   <i type="int" name="NMAXFOCKAE">     0</i>
   <i type="logical" name="LFOCKAEDFT"> F  </i>
   <i name="HFSCREEN">      0.00000000</i>
   <i name="HFSCREENC">      0.00000000</i>
   <i type="int" name="NBANDSGWLOW">     0</i>
  </separator>
  <separator name="vdW DFT" >
   <i type="logical" name="LUSE_VDW"> F  </i>
   <i name="Zab_VDW">     -0.84910000</i>
   <i name="PARAM1">      0.12340000</i>
   <i name="PARAM2">      1.00000000</i>
   <i name="PARAM3">      0.00000000</i>
  </separator>
  <separator name="model GW" >
   <i type="int" name="MODEL_GW">     0</i>
   <i name="MODEL_EPS0">     32.10781958</i>
   <i name="MODEL_ALPHA">      1.00000000</i>
  </separator>
  <separator name="linear response parameters" >
   <i type="logical" name="LEPSILON"> F  </i>
   <i type="logical" name="LRPA"> F  </i>
   <i type="logical" name="LNABLA"> F  </i>
   <i type="logical" name="LVEL"> F  </i>
   <i type="int" name="KINTER">     0</i>
   <i name="CSHIFT">      0.10000000</i>
   <i name="OMEGAMAX">     -1.00000000</i>
   <i name="DEG_THRESHOLD">      0.00200000</i>
   <i name="RTIME">     -0.10000000</i>
   <i name="WPLASMAI">      0.00000000</i>
   <v name="DFIELD">      0.00000000      0.00000000      0.00000000</v>
   <v name="WPLASMA">      0.00000000      0.00000000      0.00000000      0.00000000      0.00000000      0.00000000      0.00000000      0.00000000      0.00000000</v>
  </separator>
  <separator name="orbital magnetization" >
   <i type="logical" name="NUCIND"> F  </i>
   <v name="MAGPOS">      0.00000000      0.00000000      0.00000000</v>
   <i type="logical" name="LNICSALL"> T  </i>
   <i type="logical" name="ORBITALMAG"> F  </i>
   <i type="logical" name="LMAGBLOCH"> F  </i>
   <i type="logical" name="LCHIMAG"> F  </i>
   <i type="logical" name="LGAUGE"> T  </i>
   <i type="int" name="MAGATOM">     0</i>
   <v name="MAGDIPOL">      0.00000000      0.00000000      0.00000000</v>
   <v name="AVECCONST">      0.00000000      0.00000000      0.00000000</v>
  </separator>
  <separator name="response functions" >
   <i type="logical" name="LADDER"> F  </i>
   <i type="logical" name="LRPAFORCE"> F  </i>
   <i type="logical" name="LFXC"> F  </i>
   <i type="logical" name="LHARTREE"> T  </i>
   <i type="int" name="IBSE">     0</i>
   <v type="int" name="KPOINT">    -1     0     0     0</v>
   <i type="logical" name="LTCTE"> F  </i>
   <i type="logical" name="LTETE"> F  </i>
   <i type="logical" name="LTRIPLET"> F  </i>
   <i type="logical" name="LFXCEPS"> F  </i>
   <i type="logical" name="LFXHEG"> F  </i>
   <i type="int" name="NATURALO">     2</i>
   <i type="logical" name="L2ORDER"> F  </i>
   <i type="logical" name="LMP2LT"> F  </i>
   <i type="logical" name="LUSEW"> F  </i>
   <i name="ENCUTGW">     -2.00000000</i>
   <i name="ENCUTGWSOFT">     -2.00000000</i>
   <i name="ENCUTLF">     -1.00000000</i>
   <i type="int" name="LMAXMP2">    -1</i>
   <i name="SCISSOR">      0.00000000</i>
   <i type="int" name="NOMEGA">     0</i>
   <i type="int" name="NOMEGAR">     0</i>
   <i type="int" name="NBANDSGW">    -1</i>
   <i type="int" name="NBANDSO">    -1</i>
   <i type="int" name="NBANDSV">    -1</i>
   <i type="int" name="NELM">   100</i>
   <i type="int" name="NELMHF">     1</i>
   <i type="int" name="DIM">     3</i>
   <i type="int" name="ANTIRES">     0</i>
   <i name="OMEGAMAX">    -30.00000000</i>
   <i name="OMEGAMIN">    -30.00000000</i>
   <i name="OMEGATL">   -200.00000000</i>
   <i type="int" name="OMEGAGRID">   140</i>
   <i name="CSHIFT">     -0.10000000</i>
   <i type="logical" name="SELFENERGY"> F  </i>
   <i type="logical" name="LSPECTRAL"> F  </i>
   <i type="logical" name="LSPECTRALGW"> F  </i>
   <i type="logical" name="LSINGLES"> F  </i>
   <i type="logical" name="LFERMIGW"> F  </i>
   <i type="logical" name="ODDONLYGW"> F  </i>
   <i type="logical" name="EVENONLYGW"> F  </i>
   <i type="int" name="NKREDLFX">     1</i>
   <i type="int" name="NKREDLFY">     1</i>
   <i type="int" name="NKREDLFZ">     1</i>
   <i type="int" name="MAXMEM">  2800</i>
   <i type="int" name="TELESCOPE">     0</i>
   <i type="int" name="TAUPAR">     1</i>
   <i type="int" name="OMEGAPAR">    -1</i>
   <i name="LAMBDA">      1.00000000</i>
  </separator>
  <separator name="External order field" >
   <i name="OFIELD_KAPPA">      0.00000000</i>
   <v name="OFIELD_K">      0.00000000      0.00000000      0.00000000</v>
   <i name="OFIELD_Q6_NEAR">      0.00000000</i>
   <i name="OFIELD_Q6_FAR">      0.00000000</i>
   <i name="OFIELD_A">      0.00000000</i>
  </separator>
 </parameters>
 <atominfo>
  <atoms>      64 </atoms>
  <types>       1 </types>
  <array name="atoms" >
   <dimension dim="1">ion</dimension>
   <field type="string">element</field>
   <field type="int">atomtype</field>
   <set>
    <rc><c>Pt</c><c>   1</c></rc>
    <rc><c>Pt</c><c>   1</c></rc>
    <rc><c>Pt</c><c>   1</c></rc>
    <rc><c>Pt</c><c>   1</c></rc>
    <rc><c>Pt</c><c>   1</c></rc>
    <rc><c>Pt</c><c>   1</c></rc>
    <rc><c>Pt</c><c>   1</c></rc>
    <rc><c>Pt</c><c>   1</c></rc>
    <rc><c>Pt</c><c>   1</c></rc>
    <rc><c>Pt</c><c>   1</c></rc>
    <rc><c>Pt</c><c>   1</c></rc>
    <rc><c>Pt</c><c>   1</c></rc>
    <rc><c>Pt</c><c>   1</c></rc>
    <rc><c>Pt</c><c>   1</c></rc>
    <rc><c>Pt</c><c>   1</c></rc>
    <rc><c>Pt</c><c>   1</c></rc>
    <rc><c>Pt</c><c>   1</c></rc>
    <rc><c>Pt</c><c>   1</c></rc>
    <rc><c>Pt</c><c>   1</c></rc>
    <rc><c>Pt</c><c>   1</c></rc>
    <rc><c>Pt</c><c>   1</c></rc>
    <rc><c>Pt</c><c>   1</c></rc>
    <rc><c>Pt</c><c>   1</c></rc>
    <rc><c>Pt</c><c>   1</c></rc>
    <rc><c>Pt</c><c>   1</c></rc>
    <rc><c>Pt</c><c>   1</c></rc>
    <rc><c>Pt</c><c>   1</c></rc>
    <rc><c>Pt</c><c>   1</c></rc>
    <rc><c>Pt</c><c>   1</c></rc>
    <rc><c>Pt</c><c>   1</c></rc>
    <rc><c>Pt</c><c>   1</c></rc>
    <rc><c>Pt</c><c>   1</c></rc>
    <rc><c>Pt</c><c>   1</c></rc>
    <rc><c>Pt</c><c>   1</c></rc>
    <rc><c>Pt</c><c>   1</c></rc>
    <rc><c>Pt</c><c>   1</c></rc>
    <rc><c>Pt</c><c>   1</c></rc>
    <rc><c>Pt</c><c>   1</c></rc>
    <rc><c>Pt</c><c>   1</c></rc>
    <rc><c>Pt</c><c>   1</c></rc>
    <rc><c>Pt</c><c>   1</c></rc>
    <rc><c>Pt</c><c>   1</c></rc>
    <rc><c>Pt</c><c>   1</c></rc>
    <rc><c>Pt</c><c>   1</c></rc>
    <rc><c>Pt</c><c>   1</c></rc>
    <rc><c>Pt</c><c>   1</c></rc>
    <rc><c>Pt</c><c>   1</c></rc>
    <rc><c>Pt</c><c>   1</c></rc>
    <rc><c>Pt</c><c>   1</c></rc>
    <rc><c>Pt</c><c>   1</c></rc>
    <rc><c>Pt</c><c>   1</c></rc>
    <rc><c>Pt</c><c>   1</c></rc>
    <rc><c>Pt</c><c>   1</c></rc>
    <rc><c>Pt</c><c>   1</c></rc>
    <rc><c>Pt</c><c>   1</c></rc>
    <rc><c>Pt</c><c>   1</c></rc>
    <rc><c>Pt</c><c>   1</c></rc>
    <rc><c>Pt</c><c>   1</c></rc>
    <rc><c>Pt</c><c>   1</c></rc>
    <rc><c>Pt</c><c>   1</c></rc>
    <rc><c>Pt</c><c>   1</c></rc>
    <rc><c>Pt</c><c>   1</c></rc>
    <rc><c>Pt</c><c>   1</c></rc>
    <rc><c>Pt</c><c>   1</c></rc>
   </set>
  </array>
  <array name="atomtypes" >
   <dimension dim="1">type</dimension>
   <field type="int">atomspertype</field>
   <field type="string">element</field>
   <field>mass</field>
   <field>valence</field>
   <field type="string">pseudopotential</field>
   <set>
    <rc><c>  64</c><c>Pt</c><c>    195.08000000</c><c>     10.00000000</c><c>  PAW_PBE Pt 04Feb2005                  </c></rc>
   </set>
  </array>
 </atominfo>
 <structure name="initialpos" >
  <crystal>
   <varray name="basis" >
    <v>      11.21435918       0.00000000       0.00000000 </v>
    <v>       5.60717866       9.71191963       0.00000000 </v>
    <v>       0.00000000       0.00000000      31.44560795 </v>
   </varray>
   <i name="volume">   3424.83408825 </i>
   <varray name="rec_basis" >
    <v>       0.08917139      -0.05148312       0.00000000 </v>
    <v>       0.00000000       0.10296626       0.00000000 </v>
    <v>       0.00000000       0.00000000       0.03180094 </v>
   </varray>
  </crystal>
  <varray name="positions" >
   <v>       0.08333331       0.33333334       0.39080566 </v>
   <v>       0.08333331       0.08333334       0.39080566 </v>
   <v>       0.33333331       0.33333334       0.39080566 </v>
   <v>       0.33333331       0.08333334       0.39080566 </v>
   <v>       0.41666661       0.16666668       0.46360189 </v>
   <v>       0.41666661       0.41666668       0.46360189 </v>
   <v>       0.16666661       0.16666669       0.46360189 </v>
   <v>       0.16666661       0.41666668       0.46360189 </v>
   <v>       0.24999992       0.00000003       0.53639811 </v>
   <v>       0.24999992       0.25000003       0.53639811 </v>
   <v>       0.49999992       0.00000003       0.53639811 </v>
   <v>       0.49999992       0.25000002       0.53639811 </v>
   <v>       0.08333322       0.33333337       0.60919434 </v>
   <v>       0.08333322       0.08333337       0.60919434 </v>
   <v>       0.33333322       0.33333337       0.60919434 </v>
   <v>       0.33333322       0.08333337       0.60919434 </v>
   <v>       0.08333331       0.83333334       0.39080566 </v>
   <v>       0.08333331       0.58333334       0.39080566 </v>
   <v>       0.33333331       0.83333334       0.39080566 </v>
   <v>       0.33333331       0.58333334       0.39080566 </v>
   <v>       0.41666661       0.66666668       0.46360189 </v>
   <v>       0.41666661       0.91666668       0.46360189 </v>
   <v>       0.16666661       0.66666669       0.46360189 </v>
   <v>       0.16666661       0.91666668       0.46360189 </v>
   <v>       0.24999992       0.50000003       0.53639811 </v>
   <v>       0.24999992       0.75000003       0.53639811 </v>
   <v>       0.49999992       0.50000003       0.53639811 </v>
   <v>       0.49999992       0.75000002       0.53639811 </v>
   <v>       0.08333322       0.83333337       0.60919434 </v>
   <v>       0.08333322       0.58333337       0.60919434 </v>
   <v>       0.33333322       0.83333337       0.60919434 </v>
   <v>       0.33333322       0.58333337       0.60919434 </v>
   <v>       0.58333331       0.33333334       0.39080566 </v>
   <v>       0.58333331       0.08333334       0.39080566 </v>
   <v>       0.83333331       0.33333334       0.39080566 </v>
   <v>       0.83333331       0.08333334       0.39080566 </v>
   <v>       0.91666661       0.16666668       0.46360189 </v>
   <v>       0.91666661       0.41666668       0.46360189 </v>
   <v>       0.66666661       0.16666669       0.46360189 </v>
   <v>       0.66666661       0.41666668       0.46360189 </v>
   <v>       0.74999992       0.00000003       0.53639811 </v>
   <v>       0.74999992       0.25000003       0.53639811 </v>
   <v>       0.99999992       0.00000003       0.53639811 </v>
   <v>       0.99999992       0.25000002       0.53639811 </v>
   <v>       0.58333322       0.33333337       0.60919434 </v>
   <v>       0.58333322       0.08333337       0.60919434 </v>
   <v>       0.83333322       0.33333337       0.60919434 </v>
   <v>       0.83333322       0.08333337       0.60919434 </v>
   <v>       0.58333331       0.83333334       0.39080566 </v>
   <v>       0.58333331       0.58333334       0.39080566 </v>
   <v>       0.83333331       0.83333334       0.39080566 </v>
   <v>       0.83333331       0.58333334       0.39080566 </v>
   <v>       0.91666661       0.66666668       0.46360189 </v>
   <v>       0.91666661       0.91666668       0.46360189 </v>
   <v>       0.66666661       0.66666669       0.46360189 </v>
   <v>       0.66666661       0.91666668       0.46360189 </v>
   <v>       0.74999992       0.50000003       0.53639811 </v>
   <v>       0.74999992       0.75000003       0.53639811 </v>
   <v>       0.99999992       0.50000003       0.53639811 </v>
   <v>       0.99999992       0.75000002       0.53639811 </v>
   <v>       0.58333322       0.83333337       0.60919434 </v>
   <v>       0.58333322       0.58333337       0.60919434 </v>
   <v>       0.83333322       0.83333337       0.60919434 </v>
   <v>       0.83333322       0.58333337       0.60919434 </v>
  </varray>
  <varray name="selective"  type="logical" >
   <v type="logical" >  F  F  F </v>
   <v type="logical" >  F  F  F </v>
   <v type="logical" >  F  F  F </v>
   <v type="logical" >  F  F  F </v>
   <v type="logical" >  F  F  F </v>
   <v type="logical" >  F  F  F </v>
   <v type="logical" >  F  F  F </v>
   <v type="logical" >  F  F  F </v>
   <v type="logical" >  T  T  T </v>
   <v type="logical" >  T  T  T </v>
   <v type="logical" >  T  T  T </v>
   <v type="logical" >  T  T  T </v>
   <v type="logical" >  T  T  T </v>
   <v type="logical" >  T  T  T </v>
   <v type="logical" >  T  T  T </v>
   <v type="logical" >  T  T  T </v>
   <v type="logical" >  F  F  F </v>
   <v type="logical" >  F  F  F </v>
   <v type="logical" >  F  F  F </v>
   <v type="logical" >  F  F  F </v>
   <v type="logical" >  F  F  F </v>
   <v type="logical" >  F  F  F </v>
   <v type="logical" >  F  F  F </v>
   <v type="logical" >  F  F  F </v>
   <v type="logical" >  T  T  T </v>
   <v type="logical" >  T  T  T </v>
   <v type="logical" >  T  T  T </v>
   <v type="logical" >  T  T  T </v>
   <v type="logical" >  T  T  T </v>
   <v type="logical" >  T  T  T </v>
   <v type="logical" >  T  T  T </v>
   <v type="logical" >  T  T  T </v>
   <v type="logical" >  F  F  F </v>
   <v type="logical" >  F  F  F </v>
   <v type="logical" >  F  F  F </v>
   <v type="logical" >  F  F  F </v>
   <v type="logical" >  F  F  F </v>
   <v type="logical" >  F  F  F </v>
   <v type="logical" >  F  F  F </v>
   <v type="logical" >  F  F  F </v>
   <v type="logical" >  T  T  T </v>
   <v type="logical" >  T  T  T </v>
   <v type="logical" >  T  T  T </v>
   <v type="logical" >  T  T  T </v>
   <v type="logical" >  T  T  T </v>
   <v type="logical" >  T  T  T </v>
   <v type="logical" >  T  T  T </v>
   <v type="logical" >  T  T  T </v>
   <v type="logical" >  F  F  F </v>
   <v type="logical" >  F  F  F </v>
   <v type="logical" >  F  F  F </v>
   <v type="logical" >  F  F  F </v>
   <v type="logical" >  F  F  F </v>
   <v type="logical" >  F  F  F </v>
   <v type="logical" >  F  F  F </v>
   <v type="logical" >  F  F  F </v>
   <v type="logical" >  T  T  T </v>
   <v type="logical" >  T  T  T </v>
   <v type="logical" >  T  T  T </v>
   <v type="logical" >  T  T  T </v>
   <v type="logical" >  T  T  T </v>
   <v type="logical" >  T  T  T </v>
   <v type="logical" >  T  T  T </v>
   <v type="logical" >  T  T  T </v>
  </varray>
  <nose>
   <v>      -3.00000000       0.00000000       0.00010000       0.00010000 </v>
  </nose>
 </structure>
 <calculation>
  <scstep>
   <time name="dav">   11.95   12.05</time>
   <time name="total">   11.97   12.07</time>
   <energy>
    <i name="alphaZ">   1136.86868210 </i>
    <i name="ewald"> 406265.19981054 </i>
    <i name="hartreedc">-454309.11080589 </i>
    <i name="XCdc">    215.19757225 </i>
    <i name="pawpsdc">  44551.90626740 </i>
    <i name="pawaedc"> -42741.77887881 </i>
    <i name="eentropy">     -0.00334238 </i>
    <i name="bandstr">   2405.38687029 </i>
    <i name="atom">  46663.16491575 </i>
    <i name="e_fr_energy">   4186.83109124 </i>
    <i name="e_wo_entrp">   4186.83443362 </i>
    <i name="e_0_energy">   4186.83220537 </i>
   </energy>
  </scstep>
  <scstep>
   <time name="dav">   14.28   14.40</time>
   <time name="total">   14.28   14.40</time>
   <energy>
    <i name="e_fr_energy">    -12.88251690 </i>
    <i name="e_wo_entrp">    -12.88257098 </i>
    <i name="e_0_energy">    -12.88253492 </i>
   </energy>
  </scstep>
  <scstep>
   <time name="dav">   13.38   13.48</time>
   <time name="total">   13.38   13.48</time>
   <energy>
    <i name="e_fr_energy">   -375.88486763 </i>
    <i name="e_wo_entrp">   -375.84039793 </i>
    <i name="e_0_energy">   -375.87004440 </i>
   </energy>
  </scstep>
  <scstep>
   <time name="dav">   15.22   15.34</time>
   <time name="total">   15.22   15.34</time>
   <energy>
    <i name="e_fr_energy">   -394.37801860 </i>
    <i name="e_wo_entrp">   -394.29384360 </i>
    <i name="e_0_energy">   -394.34996027 </i>
   </energy>
  </scstep>
  <scstep>
   <time name="dav">   14.09   14.20</time>
   <time name="total">   14.44   14.56</time>
   <energy>
    <i name="e_fr_energy">   -394.90165356 </i>
    <i name="e_wo_entrp">   -394.81536103 </i>
    <i name="e_0_energy">   -394.87288939 </i>
   </energy>
  </scstep>
  <scstep>
   <time name="diag">    1.91    1.93</time>
   <time name="diis">    5.47    5.51</time>
   <time name="orth">    0.49    0.50</time>
   <time name="total">    8.23    8.30</time>
   <energy>
    <i name="e_fr_energy">   -382.21287685 </i>
    <i name="e_wo_entrp">   -382.17219234 </i>
    <i name="e_0_energy">   -382.19931535 </i>
   </energy>
  </scstep>
  <scstep>
   <time name="diag">    1.90    1.92</time>
   <time name="diis">    5.42    5.46</time>
   <time name="orth">    0.49    0.50</time>
   <time name="total">    8.18    8.25</time>
   <energy>
    <i name="e_fr_energy">   -470.29359873 </i>
    <i name="e_wo_entrp">   -470.27746463 </i>
    <i name="e_0_energy">   -470.28822070 </i>
   </energy>
  </scstep>
  <scstep>
   <time name="diag">    1.91    1.92</time>
   <time name="diis">    5.44    5.49</time>
   <time name="orth">    0.49    0.50</time>
   <time name="total">    8.20    8.27</time>
   <energy>
    <i name="e_fr_energy">   -376.02978659 </i>
    <i name="e_wo_entrp">   -375.99387541 </i>
    <i name="e_0_energy">   -376.01781620 </i>
   </energy>
  </scstep>
  <scstep>
   <time name="diag">    1.91    1.92</time>
   <time name="diis">    5.42    5.47</time>
   <time name="orth">    0.50    0.50</time>
   <time name="total">    8.19    8.26</time>
   <energy>
    <i name="e_fr_energy">   -375.16488154 </i>
    <i name="e_wo_entrp">   -375.17611143 </i>
    <i name="e_0_energy">   -375.16862483 </i>
   </energy>
  </scstep>
  <scstep>
   <time name="diag">    1.91    1.93</time>
   <time name="diis">    5.46    5.50</time>
   <time name="orth">    0.49    0.50</time>
   <time name="total">    8.21    8.29</time>
   <energy>
    <i name="e_fr_energy">   -375.26241738 </i>
    <i name="e_wo_entrp">   -375.29329482 </i>
    <i name="e_0_energy">   -375.27270986 </i>
   </energy>
  </scstep>
  <scstep>
   <time name="diag">    1.90    1.92</time>
   <time name="diis">    5.44    5.49</time>
   <time name="orth">    0.49    0.50</time>
   <time name="total">    8.20    8.27</time>
   <energy>
    <i name="e_fr_energy">   -370.64332037 </i>
    <i name="e_wo_entrp">   -370.59164465 </i>
    <i name="e_0_energy">   -370.62609513 </i>
   </energy>
  </scstep>
  <scstep>
   <time name="diag">    1.91    1.93</time>
   <time name="diis">    5.50    5.55</time>
   <time name="orth">    0.50    0.50</time>
   <time name="total">    8.27    8.34</time>
   <energy>
    <i name="e_fr_energy">   -370.41755501 </i>
    <i name="e_wo_entrp">   -370.37745613 </i>
    <i name="e_0_energy">   -370.40418872 </i>
   </energy>
  </scstep>
  <scstep>
   <time name="diag">    1.90    1.92</time>
   <time name="diis">    5.45    5.50</time>
   <time name="orth">    0.49    0.49</time>
   <time name="total">    8.20    8.27</time>
   <energy>
    <i name="e_fr_energy">   -370.43034904 </i>
    <i name="e_wo_entrp">   -370.36217231 </i>
    <i name="e_0_energy">   -370.40762347 </i>
   </energy>
  </scstep>
  <scstep>
   <time name="diag">    1.91    1.93</time>
   <time name="diis">    5.50    5.54</time>
   <time name="orth">    0.49    0.50</time>
   <time name="total">    8.25    8.32</time>
   <energy>
    <i name="e_fr_energy">   -370.46528982 </i>
    <i name="e_wo_entrp">   -370.39191312 </i>
    <i name="e_0_energy">   -370.44083092 </i>
   </energy>
  </scstep>
  <scstep>
   <time name="diag">    1.90    1.92</time>
   <time name="diis">    5.46    5.50</time>
   <time name="orth">    0.49    0.50</time>
   <time name="total">    8.21    8.28</time>
   <energy>
    <i name="e_fr_energy">   -370.35154061 </i>
    <i name="e_wo_entrp">   -370.29818987 </i>
    <i name="e_0_energy">   -370.33375703 </i>
   </energy>
  </scstep>
  <scstep>
   <time name="diag">    1.91    1.93</time>
   <time name="diis">    5.49    5.54</time>
   <time name="orth">    0.49    0.49</time>
   <time name="total">    8.25    8.32</time>
   <energy>
    <i name="e_fr_energy">   -370.33903348 </i>
    <i name="e_wo_entrp">   -370.29125185 </i>
    <i name="e_0_energy">   -370.32310627 </i>
   </energy>
  </scstep>
  <scstep>
   <time name="diag">    1.91    1.92</time>
   <time name="diis">    5.52    5.57</time>
   <time name="orth">    0.49    0.49</time>
   <time name="total">    8.28    8.36</time>
   <energy>
    <i name="e_fr_energy">   -370.33340951 </i>
    <i name="e_wo_entrp">   -370.28818830 </i>
    <i name="e_0_energy">   -370.31833577 </i>
   </energy>
  </scstep>
  <scstep>
   <time name="diag">    1.91    1.93</time>
   <time name="diis">    5.47    5.52</time>
   <time name="orth">    0.49    0.50</time>
   <time name="total">    8.23    8.30</time>
   <energy>
    <i name="e_fr_energy">   -370.33191676 </i>
    <i name="e_wo_entrp">   -370.28745036 </i>
    <i name="e_0_energy">   -370.31709463 </i>
   </energy>
  </scstep>
  <scstep>
   <time name="diag">    1.90    1.92</time>
   <time name="diis">    5.44    5.49</time>
   <time name="orth">    0.49    0.50</time>
   <time name="total">    8.20    8.27</time>
   <energy>
    <i name="e_fr_energy">   -370.33100647 </i>
    <i name="e_wo_entrp">   -370.28791927 </i>
    <i name="e_0_energy">   -370.31664407 </i>
   </energy>
  </scstep>
  <scstep>
   <time name="diag">    1.91    1.93</time>
   <time name="diis">    5.47    5.53</time>
   <time name="orth">    0.49    0.49</time>
   <time name="total">    8.23    8.31</time>
   <energy>
    <i name="e_fr_energy">   -370.33053438 </i>
    <i name="e_wo_entrp">   -370.28831246 </i>
    <i name="e_0_energy">   -370.31646041 </i>
   </energy>
  </scstep>
  <scstep>
   <time name="diag">    1.91    1.93</time>
   <time name="diis">    4.95    4.99</time>
   <time name="orth">    0.49    0.49</time>
   <time name="total">    7.70    7.77</time>
   <energy>
    <i name="e_fr_energy">   -370.33057657 </i>
    <i name="e_wo_entrp">   -370.28831171 </i>
    <i name="e_0_energy">   -370.31648828 </i>
   </energy>
  </scstep>
  <scstep>
   <time name="diag">    1.91    1.92</time>
   <time name="diis">    3.56    3.59</time>
   <time name="orth">    0.49    0.49</time>
   <time name="total">    6.31    6.37</time>
   <energy>
    <i name="e_fr_energy">   -370.33061975 </i>
    <i name="e_wo_entrp">   -370.28841488 </i>
    <i name="e_0_energy">   -370.31655146 </i>
   </energy>
  </scstep>
  <scstep>
   <time name="diag">    1.90    1.91</time>
   <time name="diis">    3.20    3.23</time>
   <time name="orth">    0.49    0.49</time>
   <time name="total">    5.95    5.99</time>
   <energy>
    <i name="e_fr_energy">   -370.33063273 </i>
    <i name="e_wo_entrp">   -370.28849306 </i>
    <i name="e_0_energy">   -370.31658617 </i>
   </energy>
  </scstep>
  <scstep>
   <time name="diag">    1.91    1.92</time>
   <time name="diis">    3.47    3.51</time>
   <time name="orth">    0.49    0.49</time>
   <time name="total">    6.23    6.28</time>
   <energy>
    <i name="e_fr_energy">   -370.33069365 </i>
    <i name="e_wo_entrp">   -370.28873864 </i>
    <i name="e_0_energy">   -370.31670864 </i>
   </energy>
  </scstep>
  <scstep>
   <time name="diag">    1.90    1.92</time>
   <time name="diis">    3.27    3.29</time>
   <time name="orth">    0.49    0.49</time>
   <time name="total">    6.01    6.06</time>
   <energy>
    <i name="e_fr_energy">   -370.33075873 </i>
    <i name="e_wo_entrp">   -370.28892983 </i>
    <i name="e_0_energy">   -370.31681577 </i>
   </energy>
  </scstep>
  <scstep>
   <time name="diag">    1.91    1.93</time>
   <time name="diis">    3.27    3.30</time>
   <time name="orth">    0.49    0.49</time>
   <time name="total">    6.03    6.08</time>
   <energy>
    <i name="e_fr_energy">   -370.33084225 </i>
    <i name="e_wo_entrp">   -370.28906382 </i>
    <i name="e_0_energy">   -370.31691611 </i>
   </energy>
  </scstep>
  <scstep>
   <time name="diag">    1.89    1.91</time>
   <time name="diis">    3.08    3.10</time>
   <time name="orth">    0.49    0.49</time>
   <time name="total">    5.81    5.86</time>
   <energy>
    <i name="e_fr_energy">   -370.33090814 </i>
    <i name="e_wo_entrp">   -370.28910431 </i>
    <i name="e_0_energy">   -370.31697353 </i>
   </energy>
  </scstep>
  <scstep>
   <time name="diag">    1.91    1.92</time>
   <time name="diis">    3.18    3.21</time>
   <time name="orth">    0.49    0.49</time>
   <time name="total">    5.94    5.99</time>
   <energy>
    <i name="e_fr_energy">   -370.33097051 </i>
    <i name="e_wo_entrp">   -370.28909990 </i>
    <i name="e_0_energy">   -370.31701364 </i>
   </energy>
  </scstep>
  <scstep>
   <time name="diag">    1.91    1.92</time>
   <time name="diis">    3.06    3.08</time>
   <time name="orth">    0.49    0.49</time>
   <time name="total">    5.81    5.86</time>
   <energy>
    <i name="e_fr_energy">   -370.33102936 </i>
    <i name="e_wo_entrp">   -370.28909616 </i>
    <i name="e_0_energy">   -370.31705163 </i>
   </energy>
  </scstep>
  <scstep>
   <time name="diag">    1.91    1.93</time>
   <time name="diis">    2.40    2.42</time>
   <time name="orth">    0.49    0.49</time>
   <time name="total">    5.15    5.20</time>
   <energy>
    <i name="e_fr_energy">   -370.33105219 </i>
    <i name="e_wo_entrp">   -370.28910587 </i>
    <i name="e_0_energy">   -370.31707008 </i>
   </energy>
  </scstep>
  <scstep>
   <time name="diag">    1.90    1.91</time>
   <time name="diis">    2.39    2.42</time>
   <time name="orth">    0.49    0.49</time>
   <time name="total">    5.14    5.18</time>
   <energy>
    <i name="e_fr_energy">   -370.33109906 </i>
    <i name="e_wo_entrp">   -370.28916407 </i>
    <i name="e_0_energy">   -370.31712073 </i>
   </energy>
  </scstep>
  <scstep>
   <time name="diag">    1.90    1.92</time>
   <time name="diis">    2.53    2.55</time>
   <time name="orth">    0.49    0.49</time>
   <time name="total">    5.27    5.32</time>
   <energy>
    <i name="e_fr_energy">   -370.33113954 </i>
    <i name="e_wo_entrp">   -370.28921336 </i>
    <i name="e_0_energy">   -370.31716414 </i>
   </energy>
  </scstep>
  <scstep>
   <time name="diag">    1.91    1.92</time>
   <time name="diis">    2.42    2.44</time>
   <time name="orth">    0.49    0.49</time>
   <time name="total">    5.17    5.22</time>
   <energy>
    <i name="e_fr_energy">   -370.33116728 </i>
    <i name="e_wo_entrp">   -370.28924159 </i>
    <i name="e_0_energy">   -370.31719205 </i>
   </energy>
  </scstep>
  <scstep>
   <time name="diag">    1.91    1.92</time>
   <time name="diis">    2.14    2.16</time>
   <time name="orth">    0.49    0.49</time>
   <time name="total">    4.89    4.94</time>
   <energy>
    <i name="e_fr_energy">   -370.33117859 </i>
    <i name="e_wo_entrp">   -370.28925539 </i>
    <i name="e_0_energy">   -370.31720419 </i>
   </energy>
  </scstep>
  <scstep>
   <time name="diag">    1.89    1.91</time>
   <time name="diis">    2.15    2.16</time>
   <time name="orth">    0.49    0.50</time>
   <time name="total">    4.88    4.93</time>
   <energy>
    <i name="e_fr_energy">   -370.33119541 </i>
    <i name="e_wo_entrp">   -370.28928128 </i>
    <i name="e_0_energy">   -370.31722403 </i>
   </energy>
  </scstep>
  <scstep>
   <time name="diag">    1.89    1.91</time>
   <time name="diis">    2.09    2.11</time>
   <time name="orth">    0.49    0.49</time>
   <time name="total">    4.49    4.52</time>
   <energy>
    <i name="alphaZ">   1136.86868210 </i>
    <i name="ewald"> 406265.19981054 </i>
    <i name="hartreedc">-453650.86931082 </i>
    <i name="XCdc">    192.34022250 </i>
    <i name="pawpsdc">  56179.56780001 </i>
    <i name="pawaedc"> -54542.05472485 </i>
    <i name="eentropy">     -0.04190919 </i>
    <i name="bandstr">  -2614.50668890 </i>
    <i name="atom">  46663.16491575 </i>
    <i name="e_fr_energy">   -370.33120286 </i>
    <i name="e_wo_entrp">   -370.28929367 </i>
    <i name="e_0_energy">   -370.31723313 </i>
   </energy>
  </scstep>
  <structure>
   <crystal>
    <varray name="basis" >
     <v>      11.21435918       0.00000000       0.00000000 </v>
     <v>       5.60717866       9.71191963       0.00000000 </v>
     <v>       0.00000000       0.00000000      31.44560795 </v>
    </varray>
    <i name="volume">   3424.83408825 </i>
    <varray name="rec_basis" >
     <v>       0.08917139      -0.05148312       0.00000000 </v>
     <v>       0.00000000       0.10296626       0.00000000 </v>
     <v>       0.00000000       0.00000000       0.03180094 </v>
    </varray>
   </crystal>
   <varray name="positions" >
    <v>       0.08333331       0.33333334       0.39080566 </v>
    <v>       0.08333331       0.08333334       0.39080566 </v>
    <v>       0.33333331       0.33333334       0.39080566 </v>
    <v>       0.33333331       0.08333334       0.39080566 </v>
    <v>       0.41666661       0.16666668       0.46360189 </v>
    <v>       0.41666661       0.41666668       0.46360189 </v>
    <v>       0.16666661       0.16666669       0.46360189 </v>
    <v>       0.16666661       0.41666668       0.46360189 </v>
    <v>       0.24999992       0.00000003       0.53639811 </v>
    <v>       0.24999992       0.25000003       0.53639811 </v>
    <v>       0.49999992       0.00000003       0.53639811 </v>
    <v>       0.49999992       0.25000002       0.53639811 </v>
    <v>       0.08333322       0.33333337       0.60919434 </v>
    <v>       0.08333322       0.08333337       0.60919434 </v>
    <v>       0.33333322       0.33333337       0.60919434 </v>
    <v>       0.33333322       0.08333337       0.60919434 </v>
    <v>       0.08333331       0.83333334       0.39080566 </v>
    <v>       0.08333331       0.58333334       0.39080566 </v>
    <v>       0.33333331       0.83333334       0.39080566 </v>
    <v>       0.33333331       0.58333334       0.39080566 </v>
    <v>       0.41666661       0.66666668       0.46360189 </v>
    <v>       0.41666661       0.91666668       0.46360189 </v>
    <v>       0.16666661       0.66666669       0.46360189 </v>
    <v>       0.16666661       0.91666668       0.46360189 </v>
    <v>       0.24999992       0.50000003       0.53639811 </v>
    <v>       0.24999992       0.75000003       0.53639811 </v>
    <v>       0.49999992       0.50000003       0.53639811 </v>
    <v>       0.49999992       0.75000002       0.53639811 </v>
    <v>       0.08333322       0.83333337       0.60919434 </v>
    <v>       0.08333322       0.58333337       0.60919434 </v>
    <v>       0.33333322       0.83333337       0.60919434 </v>
    <v>       0.33333322       0.58333337       0.60919434 </v>
    <v>       0.58333331       0.33333334       0.39080566 </v>
    <v>       0.58333331       0.08333334       0.39080566 </v>
    <v>       0.83333331       0.33333334       0.39080566 </v>
    <v>       0.83333331       0.08333334       0.39080566 </v>
    <v>       0.91666661       0.16666668       0.46360189 </v>
    <v>       0.91666661       0.41666668       0.46360189 </v>
    <v>       0.66666661       0.16666669       0.46360189 </v>
    <v>       0.66666661       0.41666668       0.46360189 </v>
    <v>       0.74999992       0.00000003       0.53639811 </v>
    <v>       0.74999992       0.25000003       0.53639811 </v>
    <v>       0.99999992       0.00000003       0.53639811 </v>
    <v>       0.99999992       0.25000002       0.53639811 </v>
    <v>       0.58333322       0.33333337       0.60919434 </v>
    <v>       0.58333322       0.08333337       0.60919434 </v>
    <v>       0.83333322       0.33333337       0.60919434 </v>
    <v>       0.83333322       0.08333337       0.60919434 </v>
    <v>       0.58333331       0.83333334       0.39080566 </v>
    <v>       0.58333331       0.58333334       0.39080566 </v>
    <v>       0.83333331       0.83333334       0.39080566 </v>
    <v>       0.83333331       0.58333334       0.39080566 </v>
    <v>       0.91666661       0.66666668       0.46360189 </v>
    <v>       0.91666661       0.91666668       0.46360189 </v>
    <v>       0.66666661       0.66666669       0.46360189 </v>
    <v>       0.66666661       0.91666668       0.46360189 </v>
    <v>       0.74999992       0.50000003       0.53639811 </v>
    <v>       0.74999992       0.75000003       0.53639811 </v>
    <v>       0.99999992       0.50000003       0.53639811 </v>
    <v>       0.99999992       0.75000002       0.53639811 </v>
    <v>       0.58333322       0.83333337       0.60919434 </v>
    <v>       0.58333322       0.58333337       0.60919434 </v>
    <v>       0.83333322       0.83333337       0.60919434 </v>
    <v>       0.83333322       0.58333337       0.60919434 </v>
   </varray>
  </structure>
  <varray name="forces" >
   <v>       0.00003750       0.00353118      -0.06454882 </v>
   <v>      -0.00303747      -0.00176960      -0.06453675 </v>
   <v>      -0.00003481       0.00001943      -0.06529664 </v>
   <v>       0.00303814      -0.00173599      -0.06456346 </v>
   <v>      -0.00008471      -0.00343541       0.17421741 </v>
   <v>       0.00296335       0.00174561       0.17421434 </v>
   <v>       0.00002873       0.00000815       0.17336971 </v>
   <v>      -0.00300985       0.00167473       0.17422477 </v>
   <v>      -0.00002374      -0.00003462      -0.18335807 </v>
   <v>      -0.00000758       0.00000973      -0.18331495 </v>
   <v>      -0.00002617      -0.00000291      -0.18569674 </v>
   <v>      -0.00002732       0.00003384      -0.18331210 </v>
   <v>       0.00001419       0.00353438       0.07443643 </v>
   <v>      -0.00303633      -0.00176199       0.07436811 </v>
   <v>      -0.00003974       0.00000901       0.07540687 </v>
   <v>       0.00305094      -0.00175530       0.07437589 </v>
   <v>       0.00004392       0.00350580      -0.06456350 </v>
   <v>      -0.00302740      -0.00178271      -0.06453703 </v>
   <v>      -0.00003862      -0.00003052      -0.06526377 </v>
   <v>       0.00305996      -0.00174765      -0.06453926 </v>
   <v>      -0.00005873      -0.00341688       0.17425220 </v>
   <v>       0.00292789       0.00171011       0.17428433 </v>
   <v>       0.00006225       0.00002984       0.17333383 </v>
   <v>      -0.00298221       0.00167451       0.17429191 </v>
   <v>       0.00000467       0.00000580      -0.18330878 </v>
   <v>       0.00004619       0.00004329      -0.18333122 </v>
   <v>       0.00003044       0.00005249      -0.18568595 </v>
   <v>      -0.00005303       0.00001927      -0.18333227 </v>
   <v>       0.00003119       0.00349076       0.07437178 </v>
   <v>      -0.00304004      -0.00175818       0.07441109 </v>
   <v>      -0.00002661      -0.00003193       0.07534116 </v>
   <v>       0.00305718      -0.00173528       0.07436615 </v>
   <v>       0.00000893       0.00355438      -0.06458250 </v>
   <v>      -0.00304977      -0.00174004      -0.06460147 </v>
   <v>      -0.00002334      -0.00000898      -0.06533650 </v>
   <v>       0.00307741      -0.00174207      -0.06459151 </v>
   <v>      -0.00001319      -0.00345787       0.17426377 </v>
   <v>       0.00298339       0.00169995       0.17426964 </v>
   <v>       0.00004955       0.00003310       0.17331514 </v>
   <v>      -0.00300546       0.00170077       0.17423538 </v>
   <v>       0.00002586      -0.00003693      -0.18331411 </v>
   <v>       0.00007580       0.00003270      -0.18330453 </v>
   <v>       0.00007186       0.00000508      -0.18571584 </v>
   <v>      -0.00001784      -0.00000201      -0.18333488 </v>
   <v>       0.00001787       0.00357035       0.07440543 </v>
   <v>      -0.00308200      -0.00176953       0.07440317 </v>
   <v>      -0.00001598       0.00000494       0.07537917 </v>
   <v>       0.00308582      -0.00174974       0.07441080 </v>
   <v>      -0.00000993       0.00350591      -0.06458035 </v>
   <v>      -0.00306982      -0.00175717      -0.06453521 </v>
   <v>      -0.00000634      -0.00003204      -0.06534750 </v>
   <v>       0.00306614      -0.00176453      -0.06457961 </v>
   <v>      -0.00003211      -0.00346259       0.17423659 </v>
   <v>       0.00301229       0.00170455       0.17426471 </v>
   <v>       0.00001249       0.00001685       0.17335186 </v>
   <v>      -0.00302536       0.00167097       0.17423542 </v>
   <v>       0.00000021      -0.00003199      -0.18330936 </v>
   <v>       0.00001834      -0.00000234      -0.18329320 </v>
   <v>       0.00001294      -0.00000341      -0.18568043 </v>
   <v>       0.00001501       0.00001193      -0.18331361 </v>
   <v>       0.00000192       0.00350923       0.07437750 </v>
   <v>      -0.00305831      -0.00175369       0.07437427 </v>
   <v>      -0.00002915      -0.00005473       0.07539431 </v>
   <v>       0.00306058      -0.00174998       0.07442677 </v>
  </varray>
  <varray name="stress" >
   <v>     -21.22245540       0.01223909      -0.00013806 </v>
   <v>       0.01223909     -21.23655192      -0.00009401 </v>
   <v>      -0.00013806      -0.00009401     -20.03915818 </v>
  </varray>
  <energy>
   <i name="e_fr_energy">   -370.33120286 </i>
   <i name="e_wo_entrp">   -370.31723313 </i>
   <i name="e_0_energy">     -0.04190919 </i>
  </energy>
  <time name="totalsc">  287.74  290.23</time>
 </calculation>
 <calculation>
  <scstep>
   <time name="dav">   12.09   12.18</time>
   <time name="total">   12.44   12.54</time>
   <energy>
    <i name="alphaZ">   1136.86868210 </i>
    <i name="ewald"> 406236.88245290 </i>
    <i name="hartreedc">-453623.21962508 </i>
    <i name="XCdc">    192.23929031 </i>
    <i name="pawpsdc">  56179.56079940 </i>
    <i name="pawaedc"> -54542.04761623 </i>
    <i name="eentropy">     -0.04488539 </i>
    <i name="bandstr">  -2613.74809609 </i>
    <i name="atom">  46663.16491575 </i>
    <i name="e_fr_energy">   -370.34408234 </i>
    <i name="e_wo_entrp">   -370.29919694 </i>
    <i name="e_0_energy">   -370.32912054 </i>
   </energy>
  </scstep>
  <scstep>
   <time name="diag">    1.90    1.92</time>
   <time name="diis">    5.41    5.47</time>
   <time name="orth">    0.49    0.49</time>
   <time name="total">    8.16    8.24</time>
   <energy>
    <i name="e_fr_energy">   -370.42752471 </i>
    <i name="e_wo_entrp">   -370.37891103 </i>
    <i name="e_0_energy">   -370.41132015 </i>
   </energy>
  </scstep>
  <scstep>
   <time name="diag">    1.91    1.92</time>
   <time name="diis">    5.73    5.78</time>
   <time name="orth">    0.49    0.50</time>
   <time name="total">    8.48    8.56</time>
   <energy>
    <i name="e_fr_energy">   -370.37738173 </i>
    <i name="e_wo_entrp">   -370.33201959 </i>
    <i name="e_0_energy">   -370.36226102 </i>
   </energy>
  </scstep>
  <scstep>
   <time name="diag">    1.91    1.92</time>
   <time name="diis">    5.40    5.45</time>
   <time name="orth">    0.49    0.50</time>
   <time name="total">    8.16    8.23</time>
   <energy>
    <i name="e_fr_energy">   -370.36961077 </i>
    <i name="e_wo_entrp">   -370.32140159 </i>
    <i name="e_0_energy">   -370.35354104 </i>
   </energy>
  </scstep>
  <scstep>
   <time name="diag">    1.90    1.92</time>
   <time name="diis">    5.40    5.45</time>
   <time name="orth">    0.49    0.49</time>
   <time name="total">    8.15    8.23</time>
   <energy>
    <i name="e_fr_energy">   -370.35825481 </i>
    <i name="e_wo_entrp">   -370.31562571 </i>
    <i name="e_0_energy">   -370.34404511 </i>
   </energy>
  </scstep>
  <scstep>
   <time name="diag">    1.90    1.91</time>
   <time name="diis">    5.42    5.47</time>
   <time name="orth">    0.49    0.49</time>
   <time name="total">    8.16    8.23</time>
   <energy>
    <i name="e_fr_energy">   -370.35401368 </i>
    <i name="e_wo_entrp">   -370.30898010 </i>
    <i name="e_0_energy">   -370.33900249 </i>
   </energy>
  </scstep>
  <scstep>
   <time name="diag">    1.91    1.92</time>
   <time name="diis">    5.44    5.49</time>
   <time name="orth">    0.49    0.49</time>
   <time name="total">    8.19    8.26</time>
   <energy>
    <i name="e_fr_energy">   -370.35272391 </i>
    <i name="e_wo_entrp">   -370.30891931 </i>
    <i name="e_0_energy">   -370.33812238 </i>
   </energy>
  </scstep>
  <scstep>
   <time name="diag">    1.90    1.92</time>
   <time name="diis">    5.43    5.47</time>
   <time name="orth">    0.49    0.50</time>
   <time name="total">    8.18    8.25</time>
   <energy>
    <i name="e_fr_energy">   -370.35267839 </i>
    <i name="e_wo_entrp">   -370.30867512 </i>
    <i name="e_0_energy">   -370.33801064 </i>
   </energy>
  </scstep>
  <scstep>
   <time name="diag">    1.90    1.92</time>
   <time name="diis">    5.24    5.28</time>
   <time name="orth">    0.49    0.50</time>
   <time name="total">    7.98    8.05</time>
   <energy>
    <i name="e_fr_energy">   -370.35261151 </i>
    <i name="e_wo_entrp">   -370.30853739 </i>
    <i name="e_0_energy">   -370.33792014 </i>
   </energy>
  </scstep>
  <scstep>
   <time name="diag">    1.89    1.91</time>
   <time name="diis">    4.39    4.43</time>
   <time name="orth">    0.49    0.50</time>
   <time name="total">    6.78    6.84</time>
   <energy>
    <i name="alphaZ">   1136.86868210 </i>
    <i name="ewald"> 406236.88245290 </i>
    <i name="hartreedc">-453623.45480983 </i>
    <i name="XCdc">    192.25043198 </i>
    <i name="pawpsdc">  56160.81379438 </i>
    <i name="pawaedc"> -54523.16807172 </i>
    <i name="eentropy">     -0.04403806 </i>
    <i name="bandstr">  -2613.66597207 </i>
    <i name="atom">  46663.16491575 </i>
    <i name="e_fr_energy">   -370.35261458 </i>
    <i name="e_wo_entrp">   -370.30857652 </i>
    <i name="e_0_energy">   -370.33793522 </i>
   </energy>
  </scstep>
  <structure>
   <crystal>
    <varray name="basis" >
     <v>      11.21435918       0.00000000       0.00000000 </v>
     <v>       5.60717866       9.71191963       0.00000000 </v>
     <v>       0.00000000       0.00000000      31.44560795 </v>
    </varray>
    <i name="volume">   3424.83408825 </i>
    <varray name="rec_basis" >
     <v>       0.08917139      -0.05148312       0.00000000 </v>
     <v>       0.00000000       0.10296626       0.00000000 </v>
     <v>       0.00000000       0.00000000       0.03180094 </v>
    </varray>
   </crystal>
   <varray name="positions" >
    <v>       0.08333331       0.33333334       0.39080566 </v>
    <v>       0.08333331       0.08333334       0.39080566 </v>
    <v>       0.33333331       0.33333334       0.39080566 </v>
    <v>       0.33333331       0.08333334       0.39080566 </v>
    <v>       0.41666661       0.16666668       0.46360189 </v>
    <v>       0.41666661       0.41666668       0.46360189 </v>
    <v>       0.16666661       0.16666669       0.46360189 </v>
    <v>       0.16666661       0.41666668       0.46360189 </v>
    <v>       0.24999990      -0.00000015       0.53611681 </v>
    <v>       0.24999986       0.25000007       0.53611688 </v>
    <v>       0.49999981       0.00000001       0.53611322 </v>
    <v>       0.49999972       0.25000019       0.53611688 </v>
    <v>       0.08332451       0.33335092       0.60930854 </v>
    <v>       0.08332454       0.08332462       0.60930843 </v>
    <v>       0.33333303       0.33333341       0.60931003 </v>
    <v>       0.33335071       0.08332465       0.60930844 </v>
    <v>       0.08333331       0.83333334       0.39080566 </v>
    <v>       0.08333331       0.58333334       0.39080566 </v>
    <v>       0.33333331       0.83333334       0.39080566 </v>
    <v>       0.33333331       0.58333334       0.39080566 </v>
    <v>       0.41666661       0.66666668       0.46360189 </v>
    <v>       0.41666661       0.91666668       0.46360189 </v>
    <v>       0.16666661       0.66666669       0.46360189 </v>
    <v>       0.16666661       0.91666668       0.46360189 </v>
    <v>       0.24999992       0.50000005       0.53611689 </v>
    <v>       0.25000001       0.75000024       0.53611685 </v>
    <v>       0.49999992       0.50000029       0.53611324 </v>
    <v>       0.49999964       0.75000012       0.53611685 </v>
    <v>       0.08332469       0.83335071       0.60930844 </v>
    <v>       0.08332451       0.58332463       0.60930850 </v>
    <v>       0.33333319       0.83333321       0.60930993 </v>
    <v>       0.33335068       0.58332475       0.60930843 </v>
    <v>       0.58333331       0.33333334       0.39080566 </v>
    <v>       0.58333331       0.08333334       0.39080566 </v>
    <v>       0.83333331       0.33333334       0.39080566 </v>
    <v>       0.83333331       0.08333334       0.39080566 </v>
    <v>       0.91666661       0.16666668       0.46360189 </v>
    <v>       0.91666661       0.41666668       0.46360189 </v>
    <v>       0.66666661       0.16666669       0.46360189 </v>
    <v>       0.66666661       0.41666668       0.46360189 </v>
    <v>       0.75000012      -0.00000016       0.53611688 </v>
    <v>       0.75000016       0.25000019       0.53611689 </v>
    <v>       0.00000021       0.00000005       0.53611320 </v>
    <v>       0.99999985       0.25000001       0.53611685 </v>
    <v>       0.58332443       0.33335110       0.60930849 </v>
    <v>       0.58332436       0.08332458       0.60930849 </v>
    <v>       0.83333314       0.33333339       0.60930998 </v>
    <v>       0.83335084       0.08332468       0.60930850 </v>
    <v>       0.58333331       0.83333334       0.39080566 </v>
    <v>       0.58333331       0.58333334       0.39080566 </v>
    <v>       0.83333331       0.83333334       0.39080566 </v>
    <v>       0.83333331       0.58333334       0.39080566 </v>
    <v>       0.91666661       0.66666668       0.46360189 </v>
    <v>       0.91666661       0.91666668       0.46360189 </v>
    <v>       0.66666661       0.66666669       0.46360189 </v>
    <v>       0.66666661       0.91666668       0.46360189 </v>
    <v>       0.75000000       0.49999987       0.53611689 </v>
    <v>       0.75000000       0.75000001       0.53611691 </v>
    <v>       0.99999998       0.50000001       0.53611325 </v>
    <v>       0.99999995       0.75000008       0.53611688 </v>
    <v>       0.58332451       0.83335080       0.60930845 </v>
    <v>       0.58332442       0.58332466       0.60930844 </v>
    <v>       0.83333323       0.83333310       0.60931001 </v>
    <v>       0.83335074       0.58332467       0.60930852 </v>
   </varray>
  </structure>
  <varray name="forces" >
   <v>      -0.00001993       0.00343777      -0.05519333 </v>
   <v>      -0.00307201      -0.00176167      -0.05508085 </v>
   <v>      -0.00002059      -0.00011850      -0.05590123 </v>
   <v>       0.00302899      -0.00174667      -0.05503260 </v>
   <v>      -0.00001672      -0.00344690       0.11968238 </v>
   <v>       0.00293697       0.00164380       0.11967333 </v>
   <v>       0.00000683      -0.00000453       0.11886469 </v>
   <v>      -0.00298991       0.00164708       0.11969852 </v>
   <v>       0.00002659       0.00012661      -0.06865323 </v>
   <v>      -0.00011006      -0.00009536      -0.06863542 </v>
   <v>       0.00006085      -0.00004776      -0.07111397 </v>
   <v>       0.00013568      -0.00012441      -0.06866722 </v>
   <v>      -0.00005857       0.00181309       0.00480575 </v>
   <v>      -0.00152547      -0.00093130       0.00488545 </v>
   <v>      -0.00000264      -0.00002866       0.00565206 </v>
   <v>       0.00154870      -0.00097942       0.00483633 </v>
   <v>      -0.00000965       0.00360256      -0.05497794 </v>
   <v>      -0.00308258      -0.00168203      -0.05525886 </v>
   <v>      -0.00005959       0.00005869      -0.05575174 </v>
   <v>       0.00306131      -0.00168213      -0.05515775 </v>
   <v>      -0.00006210      -0.00335518       0.11968794 </v>
   <v>       0.00294535       0.00173115       0.11971482 </v>
   <v>       0.00001592       0.00009649       0.11889568 </v>
   <v>      -0.00300487       0.00169378       0.11964728 </v>
   <v>      -0.00001467       0.00014070      -0.06862206 </v>
   <v>      -0.00011496      -0.00001325      -0.06858836 </v>
   <v>       0.00004846      -0.00000435      -0.07105383 </v>
   <v>       0.00018725      -0.00001086      -0.06859359 </v>
   <v>      -0.00002351       0.00178004       0.00475648 </v>
   <v>      -0.00161650      -0.00078663       0.00487688 </v>
   <v>       0.00000473       0.00001005       0.00551817 </v>
   <v>       0.00152949      -0.00080684       0.00497537 </v>
   <v>       0.00004801       0.00341255      -0.05507367 </v>
   <v>      -0.00299543      -0.00178647      -0.05497464 </v>
   <v>      -0.00002236      -0.00009900      -0.05580216 </v>
   <v>       0.00306522      -0.00177588      -0.05494931 </v>
   <v>      -0.00007168      -0.00343901       0.11969330 </v>
   <v>       0.00290869       0.00166528       0.11972068 </v>
   <v>       0.00006552      -0.00005210       0.11890968 </v>
   <v>      -0.00292358       0.00160295       0.11969934 </v>
   <v>       0.00001039       0.00007694      -0.06870919 </v>
   <v>      -0.00008796      -0.00011119      -0.06869252 </v>
   <v>      -0.00004329       0.00001474      -0.07117329 </v>
   <v>       0.00009614      -0.00004257      -0.06870370 </v>
   <v>       0.00001927       0.00173571       0.00490394 </v>
   <v>      -0.00151371      -0.00098142       0.00485945 </v>
   <v>       0.00001954       0.00005584       0.00553448 </v>
   <v>       0.00150098      -0.00095881       0.00490894 </v>
   <v>       0.00005185       0.00358647      -0.05513218 </v>
   <v>      -0.00302514      -0.00176855      -0.05519541 </v>
   <v>       0.00000112       0.00006504      -0.05567778 </v>
   <v>       0.00307061      -0.00173854      -0.05511533 </v>
   <v>      -0.00004518      -0.00333463       0.11976636 </v>
   <v>       0.00291195       0.00173719       0.11973838 </v>
   <v>       0.00007492       0.00003873       0.11896969 </v>
   <v>      -0.00292155       0.00168840       0.11978194 </v>
   <v>       0.00005895       0.00013933      -0.06859862 </v>
   <v>      -0.00007361      -0.00001734      -0.06860037 </v>
   <v>      -0.00003964       0.00006147      -0.07105912 </v>
   <v>       0.00003505       0.00000086      -0.06865744 </v>
   <v>       0.00004844       0.00174088       0.00473854 </v>
   <v>      -0.00142236      -0.00082326       0.00494083 </v>
   <v>      -0.00005281      -0.00004204       0.00542335 </v>
   <v>       0.00151886      -0.00080691       0.00463666 </v>
  </varray>
  <varray name="stress" >
   <v>     -21.45294170       0.01221916      -0.00012072 </v>
   <v>       0.01221916     -21.46703284      -0.00008541 </v>
   <v>      -0.00012072      -0.00008541     -20.37722470 </v>
  </varray>
  <energy>
   <i name="e_fr_energy">   -370.35261458 </i>
   <i name="e_wo_entrp">   -370.33793522 </i>
   <i name="e_0_energy">     -0.04403806 </i>
  </energy>
  <time name="totalsc">   89.01   89.80</time>
 </calculation>
 <calculation>
  <scstep>
   <time name="dav">   12.10   12.19</time>
   <time name="total">   12.45   12.56</time>
   <energy>
    <i name="alphaZ">   1136.86868210 </i>
    <i name="ewald"> 406227.24173301 </i>
    <i name="hartreedc">-453614.03785115 </i>
    <i name="XCdc">    192.21775112 </i>
    <i name="pawpsdc">  56160.81849516 </i>
    <i name="pawaedc"> -54523.17341371 </i>
    <i name="eentropy">     -0.04518289 </i>
    <i name="bandstr">  -2613.40935887 </i>
    <i name="atom">  46663.16491575 </i>
    <i name="e_fr_energy">   -370.35422947 </i>
    <i name="e_wo_entrp">   -370.30904659 </i>
    <i name="e_0_energy">   -370.33916851 </i>
   </energy>
  </scstep>
  <scstep>
   <time name="diag">    1.90    1.92</time>
   <time name="diis">    5.41    5.45</time>
   <time name="orth">    0.49    0.49</time>
   <time name="total">    8.16    8.23</time>
   <energy>
    <i name="e_fr_energy">   -370.36310682 </i>
    <i name="e_wo_entrp">   -370.31749537 </i>
    <i name="e_0_energy">   -370.34790301 </i>
   </energy>
  </scstep>
  <scstep>
   <time name="diag">    1.90    1.92</time>
   <time name="diis">    5.77    5.81</time>
   <time name="orth">    0.49    0.50</time>
   <time name="total">    8.51    8.58</time>
   <energy>
    <i name="e_fr_energy">   -370.35773901 </i>
    <i name="e_wo_entrp">   -370.31267040 </i>
    <i name="e_0_energy">   -370.34271614 </i>
   </energy>
  </scstep>
  <scstep>
   <time name="diag">    1.90    1.92</time>
   <time name="diis">    5.39    5.44</time>
   <time name="orth">    0.49    0.50</time>
   <time name="total">    8.14    8.21</time>
   <energy>
    <i name="e_fr_energy">   -370.35709729 </i>
    <i name="e_wo_entrp">   -370.31084230 </i>
    <i name="e_0_energy">   -370.34167896 </i>
   </energy>
  </scstep>
  <scstep>
   <time name="diag">    1.89    1.91</time>
   <time name="diis">    5.42    5.47</time>
   <time name="orth">    0.49    0.49</time>
   <time name="total">    8.16    8.23</time>
   <energy>
    <i name="e_fr_energy">   -370.35578248 </i>
    <i name="e_wo_entrp">   -370.31126980 </i>
    <i name="e_0_energy">   -370.34094492 </i>
   </energy>
  </scstep>
  <scstep>
   <time name="diag">    1.90    1.92</time>
   <time name="diis">    5.41    5.46</time>
   <time name="orth">    0.49    0.49</time>
   <time name="total">    8.16    8.23</time>
   <energy>
    <i name="e_fr_energy">   -370.35543821 </i>
    <i name="e_wo_entrp">   -370.31006056 </i>
    <i name="e_0_energy">   -370.34031233 </i>
   </energy>
  </scstep>
  <scstep>
   <time name="diag">    1.90    1.92</time>
   <time name="diis">    5.34    5.38</time>
   <time name="orth">    0.49    0.50</time>
   <time name="total">    8.09    8.16</time>
   <energy>
    <i name="e_fr_energy">   -370.35525744 </i>
    <i name="e_wo_entrp">   -370.31036053 </i>
    <i name="e_0_energy">   -370.34029180 </i>
   </energy>
  </scstep>
  <scstep>
   <time name="diag">    1.90    1.92</time>
   <time name="diis">    3.28    3.30</time>
   <time name="orth">    0.49    0.50</time>
   <time name="total">    5.68    5.73</time>
   <energy>
    <i name="alphaZ">   1136.86868210 </i>
    <i name="ewald"> 406227.24173301 </i>
    <i name="hartreedc">-453614.24621209 </i>
    <i name="XCdc">    192.22145317 </i>
    <i name="pawpsdc">  56154.92021594 </i>
    <i name="pawaedc"> -54517.23577612 </i>
    <i name="eentropy">     -0.04490023 </i>
    <i name="bandstr">  -2613.24537761 </i>
    <i name="atom">  46663.16491575 </i>
    <i name="e_fr_energy">   -370.35526609 </i>
    <i name="e_wo_entrp">   -370.31036586 </i>
    <i name="e_0_energy">   -370.34029935 </i>
   </energy>
  </scstep>
  <structure>
   <crystal>
    <varray name="basis" >
     <v>      11.21435918       0.00000000       0.00000000 </v>
     <v>       5.60717866       9.71191963       0.00000000 </v>
     <v>       0.00000000       0.00000000      31.44560795 </v>
    </varray>
    <i name="volume">   3424.83408825 </i>
    <varray name="rec_basis" >
     <v>       0.08917139      -0.05148312       0.00000000 </v>
     <v>       0.00000000       0.10296626       0.00000000 </v>
     <v>       0.00000000       0.00000000       0.03180094 </v>
    </varray>
   </crystal>
   <varray name="positions" >
    <v>       0.08333331       0.33333334       0.39080566 </v>
    <v>       0.08333331       0.08333334       0.39080566 </v>
    <v>       0.33333331       0.33333334       0.39080566 </v>
    <v>       0.33333331       0.08333334       0.39080566 </v>
    <v>       0.41666661       0.16666668       0.46360189 </v>
    <v>       0.41666661       0.41666668       0.46360189 </v>
    <v>       0.16666661       0.16666669       0.46360189 </v>
    <v>       0.16666661       0.41666668       0.46360189 </v>
    <v>       0.24999990      -0.00000021       0.53602022 </v>
    <v>       0.24999984       0.25000009       0.53602031 </v>
    <v>       0.49999977       0.00000001       0.53601540 </v>
    <v>       0.49999965       0.25000025       0.53602031 </v>
    <v>       0.08332151       0.33335695       0.60934775 </v>
    <v>       0.08332155       0.08332161       0.60934761 </v>
    <v>       0.33333296       0.33333343       0.60934975 </v>
    <v>       0.33335671       0.08332165       0.60934763 </v>
    <v>       0.08333331       0.83333334       0.39080566 </v>
    <v>       0.08333331       0.58333334       0.39080566 </v>
    <v>       0.33333331       0.83333334       0.39080566 </v>
    <v>       0.33333331       0.58333334       0.39080566 </v>
    <v>       0.41666661       0.66666668       0.46360189 </v>
    <v>       0.41666661       0.91666668       0.46360189 </v>
    <v>       0.16666661       0.66666669       0.46360189 </v>
    <v>       0.16666661       0.91666668       0.46360189 </v>
    <v>       0.24999992       0.50000006       0.53602032 </v>
    <v>       0.25000004       0.75000031       0.53602027 </v>
    <v>       0.49999992       0.50000038       0.53601542 </v>
    <v>       0.49999955       0.75000015       0.53602027 </v>
    <v>       0.08332176       0.83335666       0.60934762 </v>
    <v>       0.08332152       0.58332164       0.60934770 </v>
    <v>       0.33333317       0.83333316       0.60934962 </v>
    <v>       0.33335668       0.58332179       0.60934761 </v>
    <v>       0.58333331       0.33333334       0.39080566 </v>
    <v>       0.58333331       0.08333334       0.39080566 </v>
    <v>       0.83333331       0.33333334       0.39080566 </v>
    <v>       0.83333331       0.08333334       0.39080566 </v>
    <v>       0.91666661       0.16666668       0.46360189 </v>
    <v>       0.91666661       0.41666668       0.46360189 </v>
    <v>       0.66666661       0.16666669       0.46360189 </v>
    <v>       0.66666661       0.41666668       0.46360189 </v>
    <v>       0.75000019      -0.00000022       0.53602031 </v>
    <v>       0.75000025       0.25000024       0.53602033 </v>
    <v>       0.00000031       0.00000006       0.53601536 </v>
    <v>       0.99999982       0.25000001       0.53602026 </v>
    <v>       0.58332141       0.33335719       0.60934769 </v>
    <v>       0.58332132       0.08332156       0.60934768 </v>
    <v>       0.83333311       0.33333340       0.60934969 </v>
    <v>       0.83335689       0.08332169       0.60934770 </v>
    <v>       0.58333331       0.83333334       0.39080566 </v>
    <v>       0.58333331       0.58333334       0.39080566 </v>
    <v>       0.83333331       0.83333334       0.39080566 </v>
    <v>       0.83333331       0.58333334       0.39080566 </v>
    <v>       0.91666661       0.66666668       0.46360189 </v>
    <v>       0.91666661       0.91666668       0.46360189 </v>
    <v>       0.66666661       0.66666669       0.46360189 </v>
    <v>       0.66666661       0.91666668       0.46360189 </v>
    <v>       0.75000002       0.49999981       0.53602032 </v>
    <v>       0.75000003       0.75000001       0.53602035 </v>
    <v>       0.00000000       0.50000001       0.53601543 </v>
    <v>       0.99999996       0.75000010       0.53602031 </v>
    <v>       0.58332152       0.83335678       0.60934763 </v>
    <v>       0.58332140       0.58332167       0.60934762 </v>
    <v>       0.83333324       0.83333300       0.60934973 </v>
    <v>       0.83335675       0.58332169       0.60934773 </v>
   </varray>
  </structure>
  <varray name="forces" >
   <v>      -0.00021636       0.00316032      -0.05288012 </v>
   <v>      -0.00287398      -0.00136085      -0.05295009 </v>
   <v>      -0.00042962      -0.00043433      -0.05395080 </v>
   <v>       0.00280168      -0.00159073      -0.05264601 </v>
   <v>      -0.00035243      -0.00348710       0.09865962 </v>
   <v>       0.00271552       0.00127947       0.09818131 </v>
   <v>      -0.00006065       0.00010281       0.09821487 </v>
   <v>      -0.00331658       0.00122789       0.09855455 </v>
   <v>       0.00011180       0.00066788      -0.02237769 </v>
   <v>      -0.00057131      -0.00032209      -0.02238499 </v>
   <v>      -0.00009294       0.00002062      -0.02430098 </v>
   <v>       0.00006174      -0.00050161      -0.02197617 </v>
   <v>      -0.00022154      -0.00014867      -0.02302006 </v>
   <v>       0.00015338       0.00035026      -0.02285000 </v>
   <v>      -0.00045427      -0.00039125      -0.02310467 </v>
   <v>      -0.00013482       0.00007248      -0.02251737 </v>
   <v>      -0.00006062       0.00395329      -0.05367654 </v>
   <v>      -0.00343006      -0.00193057      -0.05356501 </v>
   <v>       0.00014766       0.00056948      -0.05414190 </v>
   <v>       0.00296447      -0.00173267      -0.05456449 </v>
   <v>       0.00023055      -0.00300675       0.09817724 </v>
   <v>       0.00288320       0.00197628       0.09867617 </v>
   <v>      -0.00023479       0.00015555       0.09764819 </v>
   <v>      -0.00274272       0.00216931       0.09842180 </v>
   <v>      -0.00040480      -0.00000889      -0.02180991 </v>
   <v>      -0.00016057       0.00028324      -0.02180810 </v>
   <v>       0.00031287      -0.00012203      -0.02389464 </v>
[...]
       <r>    -8.9873    -0.2895     4.6262 </r>
       <r>    -8.9326     0.4436     4.6504 </r>
       <r>    -8.8779     4.4469     4.8935 </r>
       <r>    -8.8233    12.7807     5.5923 </r>
       <r>    -8.7686    18.3885     6.5976 </r>
       <r>    -8.7139    14.9727     7.4161 </r>
       <r>    -8.6593     6.3261     7.7620 </r>
       <r>    -8.6046     3.0188     7.9270 </r>
       <r>    -8.5499     7.0200     8.3108 </r>
       <r>    -8.4952    11.7678     8.9541 </r>
       <r>    -8.4406    12.1721     9.6196 </r>
       <r>    -8.3859     6.6295     9.9820 </r>
       <r>    -8.3312     0.5563    10.0124 </r>
       <r>    -8.2766    -1.6883     9.9201 </r>
       <r>    -8.2219     1.4044     9.9969 </r>
       <r>    -8.1672    13.8377    10.7534 </r>
       <r>    -8.1126    28.7719    12.3264 </r>
       <r>    -8.0579    27.7061    13.8411 </r>
       <r>    -8.0032    12.8553    14.5439 </r>
       <r>    -7.9485     7.0356    14.9285 </r>
       <r>    -7.8939    10.8709    15.5228 </r>
       <r>    -7.8392     8.4834    15.9866 </r>
       <r>    -7.7845     2.4450    16.1203 </r>
       <r>    -7.7299     3.1479    16.2924 </r>
       <r>    -7.6752    14.8689    17.1053 </r>
       <r>    -7.6205    36.4987    19.1007 </r>
       <r>    -7.5659    52.9311    21.9944 </r>
       <r>    -7.5112    53.1924    24.9025 </r>
       <r>    -7.4565    48.7893    27.5698 </r>
       <r>    -7.4018    42.1233    29.8727 </r>
       <r>    -7.3472    31.1171    31.5738 </r>
       <r>    -7.2925    33.6329    33.4126 </r>
       <r>    -7.2378    53.8700    36.3576 </r>
       <r>    -7.1832    71.1804    40.2491 </r>
       <r>    -7.1285    63.8488    43.7397 </r>
       <r>    -7.0738    45.8390    46.2457 </r>
       <r>    -7.0192    45.1417    48.7136 </r>
       <r>    -6.9645    51.9327    51.5528 </r>
       <r>    -6.9098    57.5717    54.7002 </r>
       <r>    -6.8551    67.1887    58.3735 </r>
       <r>    -6.8005    68.3790    62.1117 </r>
       <r>    -6.7458    66.7254    65.7596 </r>
       <r>    -6.6911    79.1821    70.0885 </r>
       <r>    -6.6365    96.8863    75.3853 </r>
       <r>    -6.5818   102.6833    80.9990 </r>
       <r>    -6.5271   103.0238    86.6314 </r>
       <r>    -6.4725    96.3329    91.8979 </r>
       <r>    -6.4178    84.7723    96.5324 </r>
       <r>    -6.3631    88.0432   101.3457 </r>
       <r>    -6.3084   102.7057   106.9607 </r>
       <r>    -6.2538    98.1411   112.3261 </r>
       <r>    -6.1991    78.1408   116.5980 </r>
       <r>    -6.1444    70.1914   120.4354 </r>
       <r>    -6.0898    68.7139   124.1920 </r>
       <r>    -6.0351    69.5918   127.9966 </r>
       <r>    -5.9804    67.1105   131.6655 </r>
       <r>    -5.9258    51.4833   134.4801 </r>
       <r>    -5.8711    29.2275   136.0780 </r>
       <r>    -5.8164    26.2853   137.5150 </r>
       <r>    -5.7617    55.3394   140.5404 </r>
       <r>    -5.7071    90.9090   145.5104 </r>
       <r>    -5.6524   106.8679   151.3529 </r>
       <r>    -5.5977    99.9047   156.8147 </r>
       <r>    -5.5431    81.8100   161.2873 </r>
       <r>    -5.4884    70.9222   165.1646 </r>
       <r>    -5.4337    73.0910   169.1605 </r>
       <r>    -5.3790    79.5359   173.5088 </r>
       <r>    -5.3244    84.2877   178.1168 </r>
       <r>    -5.2697    93.6959   183.2391 </r>
       <r>    -5.2150   100.0732   188.7102 </r>
       <r>    -5.1604    87.4951   193.4935 </r>
       <r>    -5.1057    74.9763   197.5925 </r>
       <r>    -5.0510    79.8705   201.9590 </r>
       <r>    -4.9964    76.7506   206.1550 </r>
       <r>    -4.9417    56.5055   209.2442 </r>
       <r>    -4.8870    49.5396   211.9525 </r>
       <r>    -4.8323    69.2114   215.7363 </r>
       <r>    -4.7777    90.5401   220.6861 </r>
       <r>    -4.7230    95.7700   225.9219 </r>
       <r>    -4.6683    96.2796   231.1855 </r>
       <r>    -4.6137   107.2190   237.0472 </r>
       <r>    -4.5590   125.4449   243.9053 </r>
       <r>    -4.5043   138.1878   251.4600 </r>
       <r>    -4.4497   136.3255   258.9129 </r>
       <r>    -4.3950   118.4416   265.3882 </r>
       <r>    -4.3403    94.9460   270.5789 </r>
       <r>    -4.2856    91.6890   275.5915 </r>
       <r>    -4.2310   122.5002   282.2886 </r>
       <r>    -4.1763   156.6250   290.8513 </r>
       <r>    -4.1216   155.1088   299.3312 </r>
       <r>    -4.0670   141.1351   307.0470 </r>
       <r>    -4.0123   151.6065   315.3354 </r>
       <r>    -3.9576   155.5928   323.8417 </r>
       <r>    -3.9030   141.7193   331.5895 </r>
       <r>    -3.8483   139.7615   339.2303 </r>
       <r>    -3.7936   145.0713   347.1613 </r>
       <r>    -3.7389   148.3413   355.2712 </r>
       <r>    -3.6843   154.5728   363.7217 </r>
       <r>    -3.6296   136.7701   371.1989 </r>
       <r>    -3.5749    90.7570   376.1606 </r>
       <r>    -3.5203    66.8336   379.8144 </r>
       <r>    -3.4656    74.0349   383.8619 </r>
       <r>    -3.4109    78.4580   388.1513 </r>
       <r>    -3.3563    75.5220   392.2800 </r>
       <r>    -3.3016    74.0547   396.3286 </r>
       <r>    -3.2469    67.2433   400.0048 </r>
       <r>    -3.1922    54.9677   403.0099 </r>
       <r>    -3.1376    67.8634   406.7200 </r>
       <r>    -3.0829   114.0391   412.9546 </r>
       <r>    -3.0282   153.4419   421.3432 </r>
       <r>    -2.9736   162.5805   430.2315 </r>
       <r>    -2.9189   138.3461   437.7949 </r>
       <r>    -2.8642    96.9420   443.0948 </r>
       <r>    -2.8096    82.3836   447.5987 </r>
       <r>    -2.7549    88.2125   452.4213 </r>
       <r>    -2.7002    82.4704   456.9300 </r>
       <r>    -2.6455    69.4043   460.7243 </r>
       <r>    -2.5909    67.4883   464.4139 </r>
       <r>    -2.5362    82.7692   468.9389 </r>
       <r>    -2.4815    92.5887   474.0007 </r>
       <r>    -2.4269    79.7055   478.3583 </r>
       <r>    -2.3722    75.4966   482.4857 </r>
       <r>    -2.3175   100.1020   487.9583 </r>
       <r>    -2.2629   113.6007   494.1688 </r>
       <r>    -2.2082   100.5809   499.6676 </r>
       <r>    -2.1535   111.9819   505.7897 </r>
       <r>    -2.0988   149.0134   513.9362 </r>
       <r>    -2.0442   153.6260   522.3350 </r>
       <r>    -1.9895   138.2976   529.8957 </r>
       <r>    -1.9348   123.4824   536.6465 </r>
       <r>    -1.8802   110.5554   542.6906 </r>
       <r>    -1.8255   109.8343   548.6953 </r>
       <r>    -1.7708    81.4181   553.1464 </r>
       <r>    -1.7161    40.6114   555.3666 </r>
       <r>    -1.6615    51.5313   558.1839 </r>
       <r>    -1.6068    94.5838   563.3548 </r>
       <r>    -1.5521   114.0861   569.5919 </r>
       <r>    -1.4975   114.5355   575.8536 </r>
       <r>    -1.4428   123.5588   582.6085 </r>
       <r>    -1.3881   115.7981   588.9392 </r>
       <r>    -1.3335    86.3395   593.6594 </r>
       <r>    -1.2788    85.2675   598.3210 </r>
       <r>    -1.2241   111.6254   604.4236 </r>
       <r>    -1.1694   123.0298   611.1496 </r>
       <r>    -1.1148   136.2354   618.5977 </r>
       <r>    -1.0601   165.9529   627.6703 </r>
       <r>    -1.0054   173.3949   637.1498 </r>
       <r>    -0.9508   156.5663   645.7093 </r>
       <r>    -0.8961   128.6492   652.7426 </r>
       <r>    -0.8414   100.7569   658.2510 </r>
       <r>    -0.7868    96.6662   663.5358 </r>
       <r>    -0.7321   102.1475   669.1202 </r>
       <r>    -0.6774    96.2040   674.3797 </r>
       <r>    -0.6227    71.3184   678.2787 </r>
       <r>    -0.5681    32.7641   680.0699 </r>
       <r>    -0.5134     6.8318   680.4434 </r>
       <r>    -0.4587     3.7571   680.6488 </r>
       <r>    -0.4041    14.2356   681.4270 </r>
       <r>    -0.3494    27.7478   682.9440 </r>
       <r>    -0.2947    31.1965   684.6495 </r>
       <r>    -0.2401    21.1049   685.8033 </r>
       <r>    -0.1854    14.5354   686.5980 </r>
       <r>    -0.1307    17.9160   687.5775 </r>
       <r>    -0.0760    22.5454   688.8100 </r>
       <r>    -0.0214    28.1809   690.3507 </r>
       <r>     0.0333    27.7617   691.8684 </r>
       <r>     0.0880    19.2770   692.9223 </r>
       <r>     0.1426    18.5301   693.9353 </r>
       <r>     0.1973    31.6544   695.6659 </r>
       <r>     0.2520    43.2747   698.0317 </r>
       <r>     0.3066    34.6972   699.9286 </r>
       <r>     0.3613    18.1281   700.9197 </r>
       <r>     0.4160    15.4139   701.7624 </r>
       <r>     0.4707    21.8682   702.9579 </r>
       <r>     0.5253    20.7930   704.0947 </r>
       <r>     0.5800    10.8390   704.6872 </r>
       <r>     0.6347     1.4829   704.7683 </r>
       <r>     0.6893     0.1779   704.7780 </r>
       <r>     0.7440     7.3793   705.1814 </r>
       <r>     0.7987    15.0782   706.0058 </r>
       <r>     0.8533    13.1648   706.7255 </r>
       <r>     0.9080     9.8256   707.2627 </r>
       <r>     0.9627    17.5276   708.2209 </r>
       <r>     1.0174    26.1291   709.6494 </r>
       <r>     1.0720    25.1577   711.0248 </r>
       <r>     1.1267    23.3804   712.3030 </r>
       <r>     1.1814    29.1099   713.8944 </r>
       <r>     1.2360    35.7599   715.8494 </r>
       <r>     1.2907    39.8065   718.0256 </r>
       <r>     1.3454    34.5801   719.9161 </r>
       <r>     1.4000    23.2344   721.1864 </r>
       <r>     1.4547    22.9924   722.4434 </r>
       <r>     1.5094    24.2337   723.7682 </r>
       <r>     1.5641    16.4749   724.6689 </r>
       <r>     1.6187     8.0833   725.1108 </r>
       <r>     1.6734     7.2399   725.5066 </r>
       <r>     1.7281    16.0886   726.3862 </r>
       <r>     1.7827    27.4742   727.8882 </r>
       <r>     1.8374    27.9444   729.4159 </r>
       <r>     1.8921    13.4265   730.1500 </r>
       <r>     1.9468     1.7132   730.2436 </r>
       <r>     2.0014    11.4122   730.8675 </r>
       <r>     2.0561    30.3080   732.5245 </r>
       <r>     2.1108    26.7724   733.9881 </r>
       <r>     2.1654     8.8523   734.4721 </r>
       <r>     2.2201     8.2312   734.9221 </r>
       <r>     2.2748    20.8430   736.0616 </r>
       <r>     2.3294    24.3688   737.3938 </r>
       <r>     2.3841    19.0815   738.4370 </r>
       <r>     2.4388    18.5630   739.4518 </r>
       <r>     2.4935    20.8470   740.5915 </r>
       <r>     2.5481    23.2139   741.8607 </r>
       <r>     2.6028    24.2893   743.1886 </r>
       <r>     2.6575    22.1812   744.4012 </r>
       <r>     2.7121    22.6193   745.6378 </r>
       <r>     2.7668    22.9492   746.8924 </r>
       <r>     2.8215    20.2440   747.9992 </r>
       <r>     2.8761    24.8853   749.3597 </r>
       <r>     2.9308    27.0039   750.8360 </r>
       <r>     2.9855    13.7201   751.5860 </r>
       <r>     3.0402     1.8649   751.6880 </r>
       <r>     3.0948     3.6972   751.8901 </r>
       <r>     3.1495    11.8968   752.5405 </r>
       <r>     3.2042    17.6229   753.5040 </r>
       <r>     3.2588    26.9427   754.9769 </r>
       <r>     3.3135    46.7889   757.5349 </r>
       <r>     3.3682    49.3719   760.2341 </r>
       <r>     3.4228    23.8056   761.5355 </r>
       <r>     3.4775     8.6993   762.0111 </r>
       <r>     3.5322     9.6933   762.5410 </r>
       <r>     3.5869     5.9834   762.8682 </r>
       <r>     3.6415     0.7803   762.9108 </r>
       <r>     3.6962     1.7131   763.0045 </r>
       <r>     3.7509     4.2736   763.2381 </r>
       <r>     3.8055     2.6890   763.3851 </r>
       <r>     3.8602     2.7060   763.5331 </r>
       <r>     3.9149    13.1029   764.2494 </r>
       <r>     3.9695    22.5847   765.4841 </r>
       <r>     4.0242    16.4631   766.3841 </r>
       <r>     4.0789     9.2886   766.8920 </r>
       <r>     4.1336    10.9121   767.4885 </r>
       <r>     4.1882     8.4277   767.9493 </r>
       <r>     4.2429     1.9068   768.0535 </r>
       <r>     4.2976    -0.5819   768.0217 </r>
       <r>     4.3522    -0.3354   768.0034 </r>
       <r>     4.4069    -0.0568   768.0003 </r>
       <r>     4.4616    -0.0044   768.0000 </r>
       <r>     4.5162    -0.0002   768.0000 </r>
       <r>     4.5709    -0.0000   768.0000 </r>
       <r>     4.6256    -0.0000   768.0000 </r>
       <r>     4.6803    -0.0000   768.0000 </r>
       <r>     4.7349    -0.0000   768.0000 </r>
       <r>     4.7896     0.0000   768.0000 </r>
       <r>     4.8443     0.0000   768.0000 </r>
       <r>     4.8989     0.0000   768.0000 </r>
       <r>     4.9536     0.0000   768.0000 </r>
       <r>     5.0083     0.0000   768.0000 </r>
       <r>     5.0629     0.0000   768.0000 </r>
       <r>     5.1176     0.0000   768.0000 </r>
      </set>
     </set>
    </array>
   </total>
  </dos>
 </calculation>
 <structure name="finalpos" >
  <crystal>
   <varray name="basis" >
    <v>      11.21435918       0.00000000       0.00000000 </v>
    <v>       5.60717866       9.71191963       0.00000000 </v>
    <v>       0.00000000       0.00000000      31.44560795 </v>
   </varray>
   <i name="volume">   3424.83408825 </i>
   <varray name="rec_basis" >
    <v>       0.08917139      -0.05148312       0.00000000 </v>
    <v>       0.00000000       0.10296626       0.00000000 </v>
    <v>       0.00000000       0.00000000       0.03180094 </v>
   </varray>
  </crystal>
  <varray name="positions" >
   <v>       0.08333331       0.33333334       0.39080566 </v>
   <v>       0.08333331       0.08333334       0.39080566 </v>
   <v>       0.33333331       0.33333334       0.39080566 </v>
   <v>       0.33333331       0.08333334       0.39080566 </v>
   <v>       0.41666661       0.16666668       0.46360189 </v>
   <v>       0.41666661       0.41666668       0.46360189 </v>
   <v>       0.16666661       0.16666669       0.46360189 </v>
   <v>       0.16666661       0.41666668       0.46360189 </v>
   <v>       0.24999781       0.00000956       0.53573740 </v>
   <v>       0.24999897       0.24999443       0.53573702 </v>
   <v>       0.50000329       0.00000073       0.53572906 </v>
   <v>       0.50000951       0.24999126       0.53574674 </v>
   <v>       0.08330549       0.33338307       0.60900944 </v>
   <v>       0.08330470       0.08331385       0.60900936 </v>
   <v>       0.33333150       0.33332166       0.60901605 </v>
   <v>       0.33338660       0.08330818       0.60901357 </v>
   <v>       0.08333331       0.83333334       0.39080566 </v>
   <v>       0.08333331       0.58333334       0.39080566 </v>
   <v>       0.33333331       0.83333334       0.39080566 </v>
   <v>       0.33333331       0.58333334       0.39080566 </v>
   <v>       0.41666661       0.66666668       0.46360189 </v>
   <v>       0.41666661       0.91666668       0.46360189 </v>
   <v>       0.16666661       0.66666669       0.46360189 </v>
   <v>       0.16666661       0.91666668       0.46360189 </v>
   <v>       0.25000958       0.50000614       0.53574523 </v>
   <v>       0.24999414       0.74999823       0.53574837 </v>
   <v>       0.50000177       0.49999825       0.53573593 </v>
   <v>       0.49999543       0.74999976       0.53574068 </v>
   <v>       0.08329611       0.83339803       0.60901947 </v>
   <v>       0.08329701       0.58330417       0.60901948 </v>
   <v>       0.33333178       0.83334586       0.60901586 </v>
   <v>       0.33338618       0.58330566       0.60902056 </v>
   <v>       0.58333331       0.33333334       0.39080566 </v>
   <v>       0.58333331       0.08333334       0.39080566 </v>
   <v>       0.83333331       0.33333334       0.39080566 </v>
   <v>       0.83333331       0.08333334       0.39080566 </v>
   <v>       0.91666661       0.16666668       0.46360189 </v>
   <v>       0.91666661       0.41666668       0.46360189 </v>
   <v>       0.66666661       0.16666669       0.46360189 </v>
   <v>       0.66666661       0.41666668       0.46360189 </v>
   <v>       0.74999462       0.00000630       0.53574561 </v>
   <v>       0.74999684       0.24999306       0.53574147 </v>
   <v>      -0.00000264       0.00000109       0.53572843 </v>
   <v>       0.00000833       0.24999618       0.53573205 </v>
   <v>       0.58331486       0.33337670       0.60901763 </v>
   <v>       0.58330693       0.08330007       0.60902071 </v>
   <v>       0.83334227       0.33332846       0.60900900 </v>
   <v>       0.83338825       0.08330571       0.60901669 </v>
   <v>       0.58333331       0.83333334       0.39080566 </v>
   <v>       0.58333331       0.58333334       0.39080566 </v>
   <v>       0.83333331       0.83333334       0.39080566 </v>
   <v>       0.83333331       0.58333334       0.39080566 </v>
   <v>       0.91666661       0.66666668       0.46360189 </v>
   <v>       0.91666661       0.91666668       0.46360189 </v>
   <v>       0.66666661       0.66666669       0.46360189 </v>
   <v>       0.66666661       0.91666668       0.46360189 </v>
   <v>       0.74999791       0.50000893       0.53573858 </v>
   <v>       0.74999599       0.75000042       0.53574254 </v>
   <v>      -0.00000077       0.50000246       0.53572526 </v>
   <v>       0.00000255       0.74999872       0.53574724 </v>
   <v>       0.58330791       0.83339403       0.60902060 </v>
   <v>       0.58331589       0.58330712       0.60901746 </v>
   <v>       0.83332608       0.83333633       0.60902203 </v>
   <v>       0.83339006       0.58330553       0.60901653 </v>
  </varray>
  <varray name="selective"  type="logical" >
   <v type="logical" >  F  F  F </v>
   <v type="logical" >  F  F  F </v>
   <v type="logical" >  F  F  F </v>
   <v type="logical" >  F  F  F </v>
   <v type="logical" >  F  F  F </v>
   <v type="logical" >  F  F  F </v>
   <v type="logical" >  F  F  F </v>
   <v type="logical" >  F  F  F </v>
   <v type="logical" >  T  T  T </v>
   <v type="logical" >  T  T  T </v>
   <v type="logical" >  T  T  T </v>
   <v type="logical" >  T  T  T </v>
   <v type="logical" >  T  T  T </v>
   <v type="logical" >  T  T  T </v>
   <v type="logical" >  T  T  T </v>
   <v type="logical" >  T  T  T </v>
   <v type="logical" >  F  F  F </v>
   <v type="logical" >  F  F  F </v>
   <v type="logical" >  F  F  F </v>
   <v type="logical" >  F  F  F </v>
   <v type="logical" >  F  F  F </v>
   <v type="logical" >  F  F  F </v>
   <v type="logical" >  F  F  F </v>
   <v type="logical" >  F  F  F </v>
   <v type="logical" >  T  T  T </v>
   <v type="logical" >  T  T  T </v>
   <v type="logical" >  T  T  T </v>
   <v type="logical" >  T  T  T </v>
   <v type="logical" >  T  T  T </v>
   <v type="logical" >  T  T  T </v>
   <v type="logical" >  T  T  T </v>
   <v type="logical" >  T  T  T </v>
   <v type="logical" >  F  F  F </v>
   <v type="logical" >  F  F  F </v>
   <v type="logical" >  F  F  F </v>
   <v type="logical" >  F  F  F </v>
   <v type="logical" >  F  F  F </v>
   <v type="logical" >  F  F  F </v>
   <v type="logical" >  F  F  F </v>
   <v type="logical" >  F  F  F </v>
   <v type="logical" >  T  T  T </v>
   <v type="logical" >  T  T  T </v>
   <v type="logical" >  T  T  T </v>
   <v type="logical" >  T  T  T </v>
   <v type="logical" >  T  T  T </v>
   <v type="logical" >  T  T  T </v>
   <v type="logical" >  T  T  T </v>
   <v type="logical" >  T  T  T </v>
   <v type="logical" >  F  F  F </v>
   <v type="logical" >  F  F  F </v>
   <v type="logical" >  F  F  F </v>
   <v type="logical" >  F  F  F </v>
   <v type="logical" >  F  F  F </v>
   <v type="logical" >  F  F  F </v>
   <v type="logical" >  F  F  F </v>
   <v type="logical" >  F  F  F </v>
   <v type="logical" >  T  T  T </v>
   <v type="logical" >  T  T  T </v>
   <v type="logical" >  T  T  T </v>
   <v type="logical" >  T  T  T </v>
   <v type="logical" >  T  T  T </v>
   <v type="logical" >  T  T  T </v>
   <v type="logical" >  T  T  T </v>
   <v type="logical" >  T  T  T </v>
  </varray>
  <nose>
   <v>      -3.00000000       0.00000000       0.00010000       0.00010000 </v>
  </nose>
 </structure>
</modeling>
