   2   2   0   0
  0.1712417E+04  0.1121436E-08  0.1121436E-08  0.3144561E-08  0.1500000E-16
  1.000000000000000E-004
  CAR 
 Pt-vib                                  
      1.99567104    -11.24328289  301    -10.15893866      1.00000000
    -11.243  0.0000E+00  0.0000E+00
    -11.199  0.0000E+00  0.0000E+00
    -11.155  0.0000E+00  0.0000E+00
    -11.111  0.0000E+00  0.0000E+00
    -11.067 -0.5964E-29 -0.2632E-30
    -11.023 -0.6664E-26 -0.2943E-27
    -10.979 -0.5030E-23 -0.2223E-24
    -10.934 -0.2562E-20 -0.1133E-21
    -10.890 -0.8801E-18 -0.3895E-19
    -10.846 -0.2038E-15 -0.9031E-17
    -10.802 -0.3076E-13 -0.1366E-14
    -10.758 -0.3206E-11 -0.1429E-12
    -10.714 -0.2240E-09 -0.1003E-10
    -10.670 -0.1045E-07 -0.4713E-09
    -10.625 -0.3246E-06 -0.1480E-07
    -10.581 -0.6659E-05 -0.3087E-06
    -10.537 -0.8926E-04 -0.4248E-05
    -10.493 -0.7660E-03 -0.3805E-04
    -10.449 -0.4037E-02 -0.2162E-03
    -10.405 -0.1166E-01 -0.7307E-03
    -10.361 -0.9490E-02 -0.1150E-02
    -10.317  0.4739E-01  0.9417E-03
    -10.272  0.1744E+00  0.8638E-02
    -10.228  0.2679E+00  0.2046E-01
    -10.184  0.2164E+00  0.3001E-01
    -10.140  0.8377E-01  0.3371E-01
    -10.096  0.6149E-03  0.3373E-01
    -10.052 -0.1368E-01  0.3313E-01
    -10.008 -0.6170E-02  0.3286E-01
     -9.964 -0.1398E-02  0.3280E-01
     -9.919 -0.1900E-03  0.3279E-01
     -9.875 -0.1636E-04  0.3279E-01
     -9.831 -0.9153E-06  0.3279E-01
     -9.787 -0.3374E-07  0.3279E-01
     -9.743 -0.8256E-09  0.3279E-01
     -9.699 -0.1348E-10  0.3279E-01
     -9.655 -0.1474E-12  0.3279E-01
     -9.610 -0.1155E-14  0.3279E-01
     -9.566  0.0000E+00  0.3279E-01
     -9.522  0.0000E+00  0.3279E-01
     -9.478  0.0000E+00  0.3279E-01
     -9.434  0.0000E+00  0.3279E-01
     -9.390  0.0000E+00  0.3279E-01
     -9.346  0.0000E+00  0.3279E-01
     -9.302  0.0000E+00  0.3279E-01
     -9.257  0.0000E+00  0.3279E-01
     -9.213  0.0000E+00  0.3279E-01
     -9.169  0.0000E+00  0.3279E-01
     -9.125  0.0000E+00  0.3279E-01
     -9.081  0.0000E+00  0.3279E-01
     -9.037  0.0000E+00  0.3279E-01
     -8.993  0.0000E+00  0.3279E-01
     -8.949  0.0000E+00  0.3279E-01
     -8.904  0.0000E+00  0.3279E-01
     -8.860  0.0000E+00  0.3279E-01
     -8.816  0.0000E+00  0.3279E-01
     -8.772  0.0000E+00  0.3279E-01
     -8.728  0.0000E+00  0.3279E-01
     -8.684  0.0000E+00  0.3279E-01
     -8.640  0.0000E+00  0.3279E-01
     -8.595  0.0000E+00  0.3279E-01
     -8.551  0.0000E+00  0.3279E-01
     -8.507  0.0000E+00  0.3279E-01
     -8.463  0.0000E+00  0.3279E-01
     -8.419  0.0000E+00  0.3279E-01
     -8.375  0.0000E+00  0.3279E-01
     -8.331  0.0000E+00  0.3279E-01
     -8.287  0.0000E+00  0.3279E-01
     -8.242  0.0000E+00  0.3279E-01
     -8.198  0.0000E+00  0.3279E-01
     -8.154  0.0000E+00  0.3279E-01
     -8.110  0.0000E+00  0.3279E-01
     -8.066  0.0000E+00  0.3279E-01
     -8.022  0.0000E+00  0.3279E-01
     -7.978  0.0000E+00  0.3279E-01
     -7.934  0.0000E+00  0.3279E-01
     -7.889  0.0000E+00  0.3279E-01
     -7.845  0.0000E+00  0.3279E-01
     -7.801  0.0000E+00  0.3279E-01
     -7.757  0.0000E+00  0.3279E-01
     -7.713  0.0000E+00  0.3279E-01
     -7.669  0.0000E+00  0.3279E-01
     -7.625  0.0000E+00  0.3279E-01
     -7.581  0.0000E+00  0.3279E-01
     -7.536  0.0000E+00  0.3279E-01
     -7.492  0.0000E+00  0.3279E-01
     -7.448  0.0000E+00  0.3279E-01
     -7.404  0.0000E+00  0.3279E-01
     -7.360  0.0000E+00  0.3279E-01
     -7.316  0.0000E+00  0.3279E-01
     -7.272  0.0000E+00  0.3279E-01
     -7.227  0.0000E+00  0.3279E-01
     -7.183  0.0000E+00  0.3279E-01
     -7.139  0.0000E+00  0.3279E-01
     -7.095  0.0000E+00  0.3279E-01
     -7.051  0.0000E+00  0.3279E-01
     -7.007  0.0000E+00  0.3279E-01
     -6.963  0.0000E+00  0.3279E-01
     -6.919  0.0000E+00  0.3279E-01
     -6.874  0.0000E+00  0.3279E-01
     -6.830  0.0000E+00  0.3279E-01
     -6.786  0.0000E+00  0.3279E-01
     -6.742  0.0000E+00  0.3279E-01
     -6.698  0.0000E+00  0.3279E-01
     -6.654  0.0000E+00  0.3279E-01
     -6.610  0.0000E+00  0.3279E-01
     -6.566  0.0000E+00  0.3279E-01
     -6.521  0.0000E+00  0.3279E-01
     -6.477  0.0000E+00  0.3279E-01
     -6.433  0.0000E+00  0.3279E-01
     -6.389  0.0000E+00  0.3279E-01
     -6.345  0.0000E+00  0.3279E-01
     -6.301  0.0000E+00  0.3279E-01
     -6.257  0.0000E+00  0.3279E-01
     -6.212  0.0000E+00  0.3279E-01
     -6.168  0.0000E+00  0.3279E-01
     -6.124  0.0000E+00  0.3279E-01
     -6.080  0.0000E+00  0.3279E-01
     -6.036  0.0000E+00  0.3279E-01
     -5.992  0.0000E+00  0.3279E-01
     -5.948  0.0000E+00  0.3279E-01
     -5.904  0.0000E+00  0.3279E-01
     -5.859  0.0000E+00  0.3279E-01
     -5.815  0.0000E+00  0.3279E-01
     -5.771  0.0000E+00  0.3279E-01
     -5.727  0.0000E+00  0.3279E-01
     -5.683  0.0000E+00  0.3279E-01
     -5.639  0.0000E+00  0.3279E-01
     -5.595  0.0000E+00  0.3279E-01
     -5.551  0.0000E+00  0.3279E-01
     -5.506  0.0000E+00  0.3279E-01
     -5.462  0.0000E+00  0.3279E-01
     -5.418  0.0000E+00  0.3279E-01
     -5.374  0.0000E+00  0.3279E-01
     -5.330  0.0000E+00  0.3279E-01
     -5.286  0.0000E+00  0.3279E-01
     -5.242  0.0000E+00  0.3279E-01
     -5.197  0.0000E+00  0.3279E-01
     -5.153  0.0000E+00  0.3279E-01
     -5.109  0.0000E+00  0.3279E-01
     -5.065  0.0000E+00  0.3279E-01
     -5.021  0.0000E+00  0.3279E-01
     -4.977  0.0000E+00  0.3279E-01
     -4.933  0.0000E+00  0.3279E-01
     -4.889  0.0000E+00  0.3279E-01
     -4.844  0.0000E+00  0.3279E-01
     -4.800  0.0000E+00  0.3279E-01
     -4.756  0.0000E+00  0.3279E-01
     -4.712  0.0000E+00  0.3279E-01
     -4.668  0.0000E+00  0.3279E-01
     -4.624  0.0000E+00  0.3279E-01
     -4.580  0.0000E+00  0.3279E-01
     -4.536  0.0000E+00  0.3279E-01
     -4.491  0.0000E+00  0.3279E-01
     -4.447  0.0000E+00  0.3279E-01
     -4.403  0.0000E+00  0.3279E-01
     -4.359  0.0000E+00  0.3279E-01
     -4.315  0.0000E+00  0.3279E-01
     -4.271  0.0000E+00  0.3279E-01
     -4.227  0.0000E+00  0.3279E-01
     -4.183  0.0000E+00  0.3279E-01
     -4.138  0.0000E+00  0.3279E-01
     -4.094  0.0000E+00  0.3279E-01
     -4.050  0.0000E+00  0.3279E-01
     -4.006  0.0000E+00  0.3279E-01
     -3.962  0.0000E+00  0.3279E-01
     -3.918  0.0000E+00  0.3279E-01
     -3.874  0.0000E+00  0.3279E-01
     -3.829  0.0000E+00  0.3279E-01
     -3.785  0.0000E+00  0.3279E-01
     -3.741  0.0000E+00  0.3279E-01
     -3.697  0.0000E+00  0.3279E-01
     -3.653  0.0000E+00  0.3279E-01
     -3.609  0.0000E+00  0.3279E-01
     -3.565  0.0000E+00  0.3279E-01
     -3.521  0.0000E+00  0.3279E-01
     -3.476  0.0000E+00  0.3279E-01
     -3.432  0.0000E+00  0.3279E-01
     -3.388  0.0000E+00  0.3279E-01
     -3.344  0.0000E+00  0.3279E-01
     -3.300  0.0000E+00  0.3279E-01
     -3.256  0.0000E+00  0.3279E-01
     -3.212  0.0000E+00  0.3279E-01
     -3.168  0.0000E+00  0.3279E-01
     -3.123  0.0000E+00  0.3279E-01
     -3.079  0.0000E+00  0.3279E-01
     -3.035  0.0000E+00  0.3279E-01
     -2.991  0.0000E+00  0.3279E-01
     -2.947  0.0000E+00  0.3279E-01
     -2.903  0.0000E+00  0.3279E-01
     -2.859  0.0000E+00  0.3279E-01
     -2.814  0.0000E+00  0.3279E-01
     -2.770  0.0000E+00  0.3279E-01
     -2.726  0.0000E+00  0.3279E-01
     -2.682  0.0000E+00  0.3279E-01
     -2.638  0.0000E+00  0.3279E-01
     -2.594  0.0000E+00  0.3279E-01
     -2.550  0.0000E+00  0.3279E-01
     -2.506  0.0000E+00  0.3279E-01
     -2.461  0.0000E+00  0.3279E-01
     -2.417  0.0000E+00  0.3279E-01
     -2.373  0.0000E+00  0.3279E-01
     -2.329  0.0000E+00  0.3279E-01
     -2.285  0.0000E+00  0.3279E-01
     -2.241  0.0000E+00  0.3279E-01
     -2.197  0.0000E+00  0.3279E-01
     -2.153  0.0000E+00  0.3279E-01
     -2.108  0.0000E+00  0.3279E-01
     -2.064  0.0000E+00  0.3279E-01
     -2.020  0.0000E+00  0.3279E-01
     -1.976  0.0000E+00  0.3279E-01
     -1.932  0.0000E+00  0.3279E-01
     -1.888  0.0000E+00  0.3279E-01
     -1.844  0.0000E+00  0.3279E-01
     -1.799  0.0000E+00  0.3279E-01
     -1.755  0.0000E+00  0.3279E-01
     -1.711  0.0000E+00  0.3279E-01
     -1.667  0.0000E+00  0.3279E-01
     -1.623  0.0000E+00  0.3279E-01
     -1.579  0.0000E+00  0.3279E-01
     -1.535  0.0000E+00  0.3279E-01
     -1.491  0.0000E+00  0.3279E-01
     -1.446  0.0000E+00  0.3279E-01
     -1.402  0.0000E+00  0.3279E-01
     -1.358  0.0000E+00  0.3279E-01
     -1.314  0.0000E+00  0.3279E-01
     -1.270  0.0000E+00  0.3279E-01
     -1.226  0.0000E+00  0.3279E-01
     -1.182  0.0000E+00  0.3279E-01
     -1.138  0.0000E+00  0.3279E-01
     -1.093  0.0000E+00  0.3279E-01
     -1.049  0.0000E+00  0.3279E-01
     -1.005  0.0000E+00  0.3279E-01
     -0.961  0.0000E+00  0.3279E-01
     -0.917 -0.5161E-31  0.3279E-01
     -0.873 -0.6417E-28  0.3279E-01
     -0.829 -0.5390E-25  0.3279E-01
     -0.785 -0.3056E-22  0.3279E-01
     -0.740 -0.1168E-19  0.3279E-01
     -0.696 -0.3012E-17  0.3279E-01
     -0.652 -0.5075E-15  0.3279E-01
     -0.608 -0.5892E-13  0.3279E-01
     -0.564 -0.4591E-11  0.3279E-01
     -0.520 -0.2394E-09  0.3279E-01
     -0.476 -0.8323E-08  0.3279E-01
     -0.431 -0.1920E-06  0.3279E-01
     -0.387 -0.2920E-05  0.3279E-01
     -0.343 -0.2901E-04  0.3279E-01
     -0.299 -0.1860E-03  0.3278E-01
     -0.255 -0.7587E-03  0.3274E-01
     -0.211 -0.1927E-02  0.3266E-01
     -0.167 -0.2755E-02  0.3254E-01
     -0.123  0.4231E-03  0.3256E-01
     -0.078  0.1762E-01  0.3333E-01
     -0.034  0.6261E-01  0.3610E-01
      0.010  0.1275E+00  0.4172E-01
      0.054  0.1792E+00  0.4963E-01
      0.098  0.2228E+00  0.5946E-01
      0.142  0.2985E+00  0.7263E-01
      0.186  0.3622E+00  0.8862E-01
      0.230  0.3243E+00  0.1029E+00
      0.275  0.2338E+00  0.1132E+00
      0.319  0.2045E+00  0.1223E+00
      0.363  0.2230E+00  0.1321E+00
      0.407  0.2286E+00  0.1422E+00
      0.451  0.2560E+00  0.1535E+00
      0.495  0.3317E+00  0.1681E+00
      0.539  0.3730E+00  0.1846E+00
      0.584  0.3325E+00  0.1993E+00
      0.628  0.2722E+00  0.2113E+00
      0.672  0.2416E+00  0.2219E+00
      0.716  0.2246E+00  0.2319E+00
      0.760  0.2002E+00  0.2407E+00
      0.804  0.1732E+00  0.2483E+00
      0.848  0.1443E+00  0.2547E+00
      0.892  0.9698E-01  0.2590E+00
      0.937  0.4271E-01  0.2609E+00
      0.981  0.1426E-01  0.2615E+00
      1.025  0.1007E-01  0.2619E+00
      1.069  0.7596E-02  0.2623E+00
      1.113  0.2152E-02  0.2624E+00
      1.157 -0.7127E-03  0.2623E+00
      1.201 -0.7421E-03  0.2623E+00
      1.245 -0.2543E-03  0.2623E+00
      1.290 -0.4823E-04  0.2623E+00
      1.334 -0.5626E-05  0.2623E+00
      1.378 -0.4204E-06  0.2623E+00
      1.422 -0.2052E-07  0.2623E+00
      1.466 -0.6618E-09  0.2623E+00
      1.510 -0.1420E-10  0.2623E+00
      1.554 -0.2035E-12  0.2623E+00
      1.599 -0.1959E-14  0.2623E+00
      1.643 -0.1031E-16  0.2623E+00
      1.687  0.0000E+00  0.2623E+00
      1.731  0.0000E+00  0.2623E+00
      1.775  0.0000E+00  0.2623E+00
      1.819  0.0000E+00  0.2623E+00
      1.863  0.0000E+00  0.2623E+00
      1.907  0.0000E+00  0.2623E+00
      1.952  0.0000E+00  0.2623E+00
      1.996  0.0000E+00  0.2623E+00
