    2    2   61    1
  0.1712417E+04  0.1121436E-08  0.1121436E-08  0.3144561E-08  0.1500000E-16
  1.000000000000000E-004
  CAR 
 Pt-vib                                  
      2     10      8
 
  0.0000000E+00  0.0000000E+00  0.0000000E+00  0.6250000E-01
    1      -10.243283   1.000342
    2       -0.081259   0.000000
    3        0.009975   0.000000
    4        0.081692   0.000000
    5        0.294787   0.000000
    6        0.552740   0.000000
    7        0.813886   0.000000
    8        0.995671   0.000000
 
  0.2500000E+00 -0.1294993E-16  0.0000000E+00  0.1250000E+00
    1      -10.243088   0.999915
    2        0.010435   0.000000
    3        0.078288   0.000000
    4        0.177346   0.000000
    5        0.357077   0.000000
    6        0.644821   0.000000
    7        0.696744   0.000000
    8        0.843958   0.000000
 
  0.5000000E+00 -0.2589986E-16  0.0000000E+00  0.6250000E-01
    1      -10.243083   0.999903
    2        0.168816   0.000000
    3        0.269102   0.000000
    4        0.293746   0.000000
    5        0.464470   0.000000
    6        0.465398   0.000000
    7        0.523404   0.000000
    8        0.611916   0.000000
 
  0.0000000E+00  0.2500000E+00  0.0000000E+00  0.1250000E+00
    1      -10.243088   0.999915
    2        0.010437   0.000000
    3        0.078294   0.000000
    4        0.177348   0.000000
    5        0.357075   0.000000
    6        0.644855   0.000000
    7        0.696753   0.000000
    8        0.843866   0.000000
 
  0.2500000E+00  0.2500000E+00  0.0000000E+00  0.1250000E+00
    1      -10.243088   0.999914
    2        0.010423   0.000000
    3        0.078294   0.000000
    4        0.177329   0.000000
    5        0.357075   0.000000
    6        0.644242   0.000000
    7        0.696548   0.000000
    8        0.843924   0.000000
 
  0.5000000E+00  0.2500000E+00  0.0000000E+00  0.1250000E+00
    1      -10.243162   1.000077
    2        0.163002   0.000000
    3        0.192656   0.000000
    4        0.368954   0.000000
    5        0.488114   0.000000
    6        0.513569   0.000000
    7        0.570719   0.000000
    8        0.754758   0.000000
 
 -0.2500000E+00  0.2500000E+00  0.0000000E+00  0.1250000E+00
    1      -10.243162   1.000077
    2        0.162979   0.000000
    3        0.192636   0.000000
    4        0.368949   0.000000
    5        0.488125   0.000000
    6        0.516338   0.000000
    7        0.568350   0.000000
    8        0.751869   0.000000
 
  0.0000000E+00  0.5000000E+00  0.0000000E+00  0.6250000E-01
    1      -10.243083   0.999903
    2        0.168824   0.000000
    3        0.269087   0.000000
    4        0.293791   0.000000
    5        0.464497   0.000000
    6        0.465380   0.000000
    7        0.523328   0.000000
    8        0.611935   0.000000
 
  0.2500000E+00  0.5000000E+00  0.0000000E+00  0.1250000E+00
    1      -10.243162   1.000077
    2        0.162995   0.000000
    3        0.192677   0.000000
    4        0.368955   0.000000
    5        0.488089   0.000000
    6        0.513647   0.000000
    7        0.570724   0.000000
    8        0.752359   0.000000
 
  0.5000000E+00  0.5000000E+00  0.0000000E+00  0.6250000E-01
    1      -10.243083   0.999902
    2        0.168848   0.000000
    3        0.270870   0.000000
    4        0.291440   0.000000
    5        0.463771   0.000000
    6        0.465916   0.000000
    7        0.523283   0.000000
    8        0.611997   0.000000
