 vasp.5.4.4.18Apr17-6-g9f103f2a35 (build May 23 2022 10:35:18) complex          
  
 executed on           IFC18_impi date 2023.06.20  00:48:15
 running on   64 total cores
 distrk:  each k-point on   64 cores,    1 groups
 distr:  one band on NCORES_PER_BAND=   8 cores,    8 groups


--------------------------------------------------------------------------------------------------------


 INCAR:
 POTCAR:    PAW_PBE H 15Jun2001                   
 POTCAR:    PAW_PBE H 15Jun2001                   
   VRHFIN =H: ultrasoft test                                                    
   LEXCH  = PE                                                                  
   EATOM  =    12.4884 eV,    0.9179 Ry                                         
                                                                                
   TITEL  = PAW_PBE H 15Jun2001                                                 
   LULTRA =        F    use ultrasoft PP ?                                      
   IUNSCR =        0    unscreen: 0-lin 1-nonlin 2-no                           
   RPACOR =    0.000    partial core radius                                     
   POMASS =    1.000; ZVAL   =    1.000    mass and valenz                      
   RCORE  =    1.100    outmost cutoff radius                                   
   RWIGS  =    0.700; RWIGS  =    0.370    wigner-seitz radius (au A)           
   ENMAX  =  250.000; ENMIN  =  200.000 eV                                      
   RCLOC  =    0.701    cutoff for local pot                                    
   LCOR   =        T    correct aug charges                                     
   LPAW   =        T    paw PP                                                  
   EAUG   =  400.000                                                            
   RMAX   =    1.123    core radius for proj-oper                               
   RAUG   =    1.200    factor for augmentation sphere                          
   RDEP   =    1.112    radius for radial grids                                 
   RDEPT  =    0.926    core radius for aug-charge                              
                                                                                
   Atomic configuration                                                         
    2 entries                                                                   
     n  l   j            E        occ.                                          
     1  0  0.50        -6.4927   1.0000                                         
     2  1  0.50        -3.4015   0.0000                                         
   Description                                                                  
     l       E           TYP  RCUT    TYP  RCUT                                 
     0     -6.4927494     23  1.100                                             
     0      6.8029130     23  1.100                                             
     1     -4.0817478     23  1.100                                             
  local pseudopotential read in
  atomic valenz-charges read in
  non local Contribution for L=           0  read in
    real space projection operators read in
  non local Contribution for L=           0  read in
    real space projection operators read in
  non local Contribution for L=           1  read in
    real space projection operators read in
    PAW grid and wavefunctions read in
 
   number of l-projection  operators is LMAX  =           3
   number of lm-projection operators is LMMAX =           5
 

 ----------------------------------------------------------------------------- 
|                                                                             |
|  ADVICE TO THIS USER RUNNING 'VASP/VAMP'   (HEAR YOUR MASTER'S VOICE ...):  |
|                                                                             |
|      You have a (more or less) 'small supercell' and for smaller cells      |
|      it is recommended  to use the reciprocal-space projection scheme!      |
|      The real space optimization is not  efficient for small cells and it   |
|      is also less accurate ...                                              |
|      Therefore set LREAL=.FALSE. in the  INCAR file                         |
|                                                                             |
 ----------------------------------------------------------------------------- 

 Optimization of the real space projectors (new method)

 maximal supplied QI-value         = 34.20
 optimisation between [QCUT,QGAM] = [  9.92, 20.18] = [ 27.55,114.04] Ry 
 Optimized for a Real-space Cutoff    1.06 Angstroem

   l    n(q)    QCUT    max X(q) W(low)/X(q) W(high)/X(q)  e(spline) 
   0      6     9.919    19.460    0.17E-02    0.71E-03    0.15E-06
   0      6     9.919    12.209    0.17E-02    0.71E-03    0.14E-06
   1      6     9.919     4.655    0.35E-03    0.20E-02    0.14E-06
  PAW_PBE H 15Jun2001                   :
 energy of atom  1       EATOM=  -12.4884
 kinetic energy error for atom=    0.0098 (will be added to EATOM!!)
 
 
 POSCAR:  H                                      
  positions in direct lattice
  velocities in cartesian coordinates
 exchange correlation table for  LEXCH =        8
   RHO(1)=    0.500       N(1)  =     2000
   RHO(2)=  100.500       N(2)  =     4000

 VTST: version 3.2, (02/03/18)

 CHAIN: initializing optimizer
 
 OPT: Using VASP Dynamics algorithm
 CHAIN: Read ICHAIN            0
 
 POSCAR:  H                                      
  positions in direct lattice
  velocities in cartesian coordinates
 


--------------------------------------------------------------------------------------------------------


 ion  position               nearest neighbor table
   1  0.188  0.515  0.171-   2 0.75
   2  0.188  0.515  0.147-   1 0.75
 

IMPORTANT INFORMATION: All symmetrisations will be switched off!
NOSYMM: (Re-)initialisation of all symmetry stuff for point group C_1.

 
 
 KPOINTS: kpoints                                 

Automatic generation of k-mesh.
Space group operators:
 irot       det(A)        alpha          n_x          n_y          n_z        tau_x        tau_y        tau_z
    1     1.000000     0.000001     1.000000     0.000000     0.000000     0.000000     0.000000     0.000000
 
 Subroutine IBZKPT returns following result:
 ===========================================
 
 Found     10 irreducible k-points:
 
 Following reciprocal coordinates:
            Coordinates               Weight
  0.000000  0.000000  0.000000      1.000000
  0.250000 -0.000000  0.000000      2.000000
  0.500000 -0.000000  0.000000      1.000000
  0.000000  0.250000  0.000000      2.000000
  0.250000  0.250000  0.000000      2.000000
  0.500000  0.250000  0.000000      2.000000
 -0.250000  0.250000  0.000000      2.000000
  0.000000  0.500000  0.000000      1.000000
  0.250000  0.500000  0.000000      2.000000
  0.500000  0.500000  0.000000      1.000000
 
 Following cartesian coordinates:
            Coordinates               Weight
  0.000000  0.000000  0.000000      1.000000
  0.022293 -0.012871  0.000000      2.000000
  0.044586 -0.025742  0.000000      1.000000
  0.000000  0.025742  0.000000      2.000000
  0.022293  0.012871  0.000000      2.000000
  0.044586  0.000000  0.000000      2.000000
 -0.022293  0.038612  0.000000      2.000000
  0.000000  0.051483  0.000000      1.000000
  0.022293  0.038612  0.000000      2.000000
  0.044586  0.025742  0.000000      1.000000
 
 
 Subroutine IBZKPT_HF returns following result:
 ==============================================
 
 Found     16 k-points in 1st BZ
 the following     16 k-points will be used (e.g. in the exchange kernel)
 Following reciprocal coordinates:   # in IRBZ
  0.000000  0.000000  0.000000    0.06250000   1 t-inv F
  0.250000 -0.000000  0.000000    0.06250000   2 t-inv F
  0.500000 -0.000000  0.000000    0.06250000   3 t-inv F
  0.000000  0.250000  0.000000    0.06250000   4 t-inv F
  0.250000  0.250000  0.000000    0.06250000   5 t-inv F
  0.500000  0.250000  0.000000    0.06250000   6 t-inv F
 -0.250000  0.250000  0.000000    0.06250000   7 t-inv F
  0.000000  0.500000  0.000000    0.06250000   8 t-inv F
  0.250000  0.500000  0.000000    0.06250000   9 t-inv F
  0.500000  0.500000  0.000000    0.06250000  10 t-inv F
 -0.250000  0.000000  0.000000    0.06250000   2 t-inv T
  0.000000 -0.250000  0.000000    0.06250000   4 t-inv T
 -0.250000 -0.250000  0.000000    0.06250000   5 t-inv T
 -0.500000 -0.250000  0.000000    0.06250000   6 t-inv T
  0.250000 -0.250000  0.000000    0.06250000   7 t-inv T
 -0.250000 -0.500000  0.000000    0.06250000   9 t-inv T


--------------------------------------------------------------------------------------------------------




 Dimension of arrays:
   k-points           NKPTS =     10   k-points in BZ     NKDIM =     10   number of bands    NBANDS=      8
   number of dos      NEDOS =    301   number of ions     NIONS =      2
   non local maximal  LDIM  =      3   non local SUM 2l+1 LMDIM =      5
   total plane-waves  NPLWV = 501760
   max r-space proj   IRMAX =    776   max aug-charges    IRDMAX=    438
   dimension x,y,z NGX =    56 NGY =   56 NGZ =  160
   dimension x,y,z NGXF=    80 NGYF=   80 NGZF=  210
   support grid    NGXF=    80 NGYF=   80 NGZF=  210
   ions per type =               2
   NGX,Y,Z   is equivalent  to a cutoff of   8.30,  8.30,  8.46 a.u.
   NGXF,Y,Z  is equivalent  to a cutoff of  11.86, 11.86, 11.10 a.u.

 SYSTEM =  Pt-vib                                  
 POSCAR =   H                                      

 Startparameter for this run:
   NWRITE =      2    write-flag & timer
   PREC   = med       normal or accurate (medium, high low for compatibility)
   ISTART =      0    job   : 0-new  1-cont  2-samecut
   ICHARG =      2    charge: 1-file 2-atom 10-const
   ISPIN  =      1    spin polarized calculation?
   LNONCOLLINEAR =      F non collinear calculations
   LSORBIT =      F    spin-orbit coupling
   INIWAV =      1    electr: 0-lowe 1-rand  2-diag
   LASPH  =      F    aspherical Exc in radial PAW
   METAGGA=      F    non-selfconsistent MetaGGA calc.

 Electronic Relaxation 1
   ENCUT  =  400.0 eV  29.40 Ry    5.42 a.u.  18.29 18.29 51.28*2*pi/ulx,y,z
   ENINI  =  400.0     initial cutoff
   ENAUG  =  400.0 eV  augmentation charge cutoff
   NELM   =    100;   NELMIN=  2; NELMDL= -5     # of ELM steps 
   EDIFF  = 0.1E-04   stopping-criterion for ELM
   LREAL  =      T    real-space projection
   NLSPLINE    = F    spline interpolate recip. space projectors
   LCOMPAT=      F    compatible to vasp.4.4
   GGA_COMPAT  = T    GGA compatible to vasp.4.4-vasp.4.6
   LMAXPAW     = -100 max onsite density
   LMAXMIX     =    2 max onsite mixed and CHGCAR
   VOSKOWN=      0    Vosko Wilk Nusair interpolation
   ROPT   =   -0.00200
 Ionic relaxation
   EDIFFG = 0.1E-03   stopping-criterion for IOM
   NSW    =     61    number of steps for IOM
   NBLOCK =      1;   KBLOCK =     61    inner block; outer block 
   IBRION =      5    ionic relax: 0-MD 1-quasi-New 2-CG
   NFREE  =      2    steps in history (QN), initial steepest desc. (CG)
   ISIF   =      1    stress and relaxation
   IWAVPR =     11    prediction:  0-non 1-charg 2-wave 3-comb
   ISYM   =      0    0-nonsym 1-usesym 2-fastsym
   LCORR  =      T    Harris-Foulkes like correction to forces

   POTIM  = 0.0150    time-step for ionic-motion
   TEIN   =    0.0    initial temperature
   TEBEG  =    0.0;   TEEND  =   0.0 temperature during run
   SMASS  =  -3.00    Nose mass-parameter (am)
   estimated Nose-frequenzy (Omega)   =  0.10E-29 period in steps =****** mass=  -0.287E-26a.u.
   SCALEE = 1.0000    scale energy and forces
   NPACO  =    256;   APACO  = 16.0  distance and # of slots for P.C.
   PSTRESS=    0.0 pullay stress

  Mass of Ions in am
   POMASS =   1.00
  Ionic Valenz
   ZVAL   =   1.00
  Atomic Wigner-Seitz radii
   RWIGS  =  -1.00
  virtual crystal weights 
   VCA    =   1.00
   NELECT =       2.0000    total number of electrons
   NUPDOWN=      -1.0000    fix difference up-down

 DOS related values:
   EMIN   =  10.00;   EMAX   =-10.00  energy-range for DOS
   EFERMI =   0.00
   ISMEAR =     1;   SIGMA  =   0.10  broadening in eV -4-tet -1-fermi 0-gaus

 Electronic relaxation 2 (details)
   IALGO  =     68    algorithm
   LDIAG  =      T    sub-space diagonalisation (order eigenvalues)
   LSUBROT=      F    optimize rotation matrix (better conditioning)
   TURBO    =      0    0=normal 1=particle mesh
   IRESTART =      0    0=no restart 2=restart with 2 vectors
   NREBOOT  =      0    no. of reboots
   NMIN     =      0    reboot dimension
   EREF     =   0.00    reference energy to select bands
   IMIX   =      4    mixing-type and parameters
     AMIX     =   0.40;   BMIX     =  1.00
     AMIX_MAG =   1.60;   BMIX_MAG =  1.00
     AMIN     =   0.10
     WC   =   100.;   INIMIX=   1;  MIXPRE=   1;  MAXMIX= -45

 Intra band minimization:
   WEIMIN = 0.0010     energy-eigenvalue tresh-hold
   EBREAK =  0.31E-06  absolut break condition
   DEPER  =   0.30     relativ break condition  

   TIME   =   0.40     timestep for ELM

  volume/ion in A,a.u.               =    1712.42     11555.96
  Fermi-wavevector in a.u.,A,eV,Ry     =   0.136837  0.258585  0.254762  0.018724
  Thomas-Fermi vector in A             =   0.788781
 
 Write flags
   LWAVE        =      F    write WAVECAR
   LDOWNSAMPLE  =      F    k-point downsampling of WAVECAR
   LCHARG       =      F    write CHGCAR
   LVTOT        =      F    write LOCPOT, total local potential
   LVHAR        =      F    write LOCPOT, Hartree potential only
   LELF         =      F    write electronic localiz. function (ELF)
   LORBIT       =      0    0 simple, 1 ext, 2 COOP (PROOUT), +10 PAW based schemes


 Dipole corrections
   LMONO  =      F    monopole corrections only (constant potential shift)
   LDIPOL =      F    correct potential (dipole corrections)
   IDIPOL =      0    1-x, 2-y, 3-z, 4-all directions 
   EPSILON=  1.0000000 bulk dielectric constant

 Exchange correlation treatment:
   GGA     =    --    GGA type
   LEXCH   =     8    internal setting for exchange type
   VOSKOWN=      0    Vosko Wilk Nusair interpolation
   LHFCALC =     F    Hartree Fock is set to
   LHFONE  =     F    Hartree Fock one center treatment
   AEXX    =    0.0000 exact exchange contribution

 Linear response parameters
   LEPSILON=     F    determine dielectric tensor
   LRPA    =     F    only Hartree local field effects (RPA)
   LNABLA  =     F    use nabla operator in PAW spheres
   LVEL    =     F    velocity operator in full k-point grid
   LINTERFAST=   F  fast interpolation
   KINTER  =     0    interpolate to denser k-point grid
   CSHIFT  =0.1000    complex shift for real part using Kramers Kronig
   OMEGAMAX=  -1.0    maximum frequency
   DEG_THRESHOLD= 0.2000000E-02 threshold for treating states as degnerate
   RTIME   =   -0.100 relaxation time in fs
  (WPLASMAI=    0.000 imaginary part of plasma frequency in eV, 0.658/RTIME)
   DFIELD  = 0.0000000 0.0000000 0.0000000 field for delta impulse in time
 
 Orbital magnetization related:
   ORBITALMAG=     F  switch on orbital magnetization
   LCHIMAG   =     F  perturbation theory with respect to B field
   DQ        =  0.001000  dq finite difference perturbation B field
   LLRAUG    =     F  two centre corrections for induced B field



--------------------------------------------------------------------------------------------------------


 finite differences
 charge density and potential will be updated during run
 non-spin polarized calculation
 RMM-DIIS sequential band-by-band and
  variant of blocked Davidson during initial phase
 perform sub-space diagonalisation
    before iterative eigenvector-optimisation
 modified Broyden-mixing scheme, WC =      100.0
 initial mixing is a Kerker type mixing with AMIX =  0.4000 and BMIX =      1.0000
 Hartree-type preconditioning will be used
 using additional bands            7
 real space projection scheme for non local part
 calculate Harris-corrections to forces 
   (improved forces if not selfconsistent)
 use gradient corrections 
 use of overlap-Matrix (Vanderbilt PP)
 Methfessel and Paxton  Order N= 1 SIGMA  =   0.10


--------------------------------------------------------------------------------------------------------


  energy-cutoff  :      400.00
  volume of cell :     3424.83
      direct lattice vectors                 reciprocal lattice vectors
    11.214359184  0.000000000  0.000000000     0.089171390 -0.051483119  0.000000000
     5.607178664  9.711919634  0.000000000     0.000000000  0.102966256  0.000000000
     0.000000000  0.000000000 31.445607950     0.000000000  0.000000000  0.031800943

  length of vectors
    11.214359184 11.214358455 31.445607950     0.102966249  0.102966256  0.031800943


 
 k-points in units of 2pi/SCALE and weight: kpoints                                 
   0.00000000  0.00000000  0.00000000       0.062
   0.02229285 -0.01287078  0.00000000       0.125
   0.04458570 -0.02574156  0.00000000       0.062
   0.00000000  0.02574156  0.00000000       0.125
   0.02229285  0.01287078  0.00000000       0.125
   0.04458570  0.00000000  0.00000000       0.125
  -0.02229285  0.03861234  0.00000000       0.125
   0.00000000  0.05148313  0.00000000       0.062
   0.02229285  0.03861235  0.00000000       0.125
   0.04458570  0.02574157  0.00000000       0.062
 
 k-points in reciprocal lattice and weights: kpoints                                 
   0.00000000  0.00000000  0.00000000       0.062
   0.25000000 -0.00000000  0.00000000       0.125
   0.50000000 -0.00000000  0.00000000       0.062
   0.00000000  0.25000000  0.00000000       0.125
   0.25000000  0.25000000  0.00000000       0.125
   0.50000000  0.25000000  0.00000000       0.125
  -0.25000000  0.25000000  0.00000000       0.125
   0.00000000  0.50000000  0.00000000       0.062
   0.25000000  0.50000000  0.00000000       0.125
   0.50000000  0.50000000  0.00000000       0.062
 
 position of ions in fractional coordinates (direct lattice) 
   0.18844173  0.51483125  0.17094480
   0.18844098  0.51483131  0.14706463
 
 position of ions in cartesian coordinates  (Angst):
   5.00000409  4.99999974  5.37546315
   4.99999591  5.00000026  4.62453685
 


--------------------------------------------------------------------------------------------------------


 k-point  1 :   0.0000 0.0000 0.0000  plane waves:   62299
 k-point  2 :   0.2500-0.0000 0.0000  plane waves:   62176
 k-point  3 :   0.5000-0.0000 0.0000  plane waves:   62174
 k-point  4 :   0.0000 0.2500 0.0000  plane waves:   62176
 k-point  5 :   0.2500 0.2500 0.0000  plane waves:   62176
 k-point  6 :   0.5000 0.2500 0.0000  plane waves:   62212
 k-point  7 :  -0.2500 0.2500 0.0000  plane waves:   62212
 k-point  8 :   0.0000 0.5000 0.0000  plane waves:   62174
 k-point  9 :   0.2500 0.5000 0.0000  plane waves:   62212
 k-point 10 :   0.5000 0.5000 0.0000  plane waves:   62174

 maximum and minimum number of plane-waves per node :      7835     7684

 maximum number of plane-waves:     62299
 maximum index in each direction: 
   IXMAX=   18   IYMAX=   18   IZMAX=   51
   IXMIN=  -18   IYMIN=  -18   IZMIN=  -51


 real space projection operators:
  total allocation   :         54.96 KBytes
  max/ min on nodes  :          7.58          6.29


 parallel 3D FFT for wavefunctions:
    minimum data exchange during FFTs selected (reduces bandwidth)
 parallel 3D FFT for charge:
    minimum data exchange during FFTs selected (reduces bandwidth)


 total amount of memory used by VASP MPI-rank0    38437. kBytes
=======================================================================

   base      :      30000. kBytes
   nonlr-proj:         32. kBytes
   fftplans  :       3025. kBytes
   grid      :       4138. kBytes
   one-center:          1. kBytes
   wavefun   :       1241. kBytes
 
     INWAV:  cpu time    0.0000: real time    0.0001
 Broyden mixing: mesh for mixing (old mesh)
   NGX = 37   NGY = 37   NGZ =103
  (NGX  = 80   NGY  = 80   NGZ  =210)
  gives a total of 141007 points

 initial charge density was supplied:
 charge density of overlapping atoms calculated
 number of electron       2.0000000 magnetization 
 keeping initial charge density in first step


--------------------------------------------------------------------------------------------------------


 Maximum index for non-local projection operator           89
 Maximum index for augmentation-charges            0 (set IRDMAX)


--------------------------------------------------------------------------------------------------------


 First call to EWALD:  gamma=   0.118
 Maximum number of real-space cells 4x 4x 2
 Maximum number of reciprocal cells 2x 2x 5

    FEWALD:  cpu time    0.0016: real time    0.0016


--------------------------------------- Iteration      1(   1)  ---------------------------------------


    POTLOK:  cpu time    0.0163: real time    0.0191
    SETDIJ:  cpu time    0.0012: real time    0.0014
     EDDAV:  cpu time    0.1762: real time    0.1772
       DOS:  cpu time    0.0003: real time    0.0003
    --------------------------------------------
      LOOP:  cpu time    0.1939: real time    0.1979

 eigenvalue-minimisations  :   240
 total energy-change (2. order) :-0.1963461E+01  (-0.3472171E+02)
 number of electron       2.0000000 magnetization 
 augmentation part        2.0000000 magnetization 

 Free energy of the ion-electron system (eV)
  ---------------------------------------------------
  alpha Z        PSCENC =         0.00284530
  Ewald energy   TEWEN  =        17.04628075
  -Hartree energ DENC   =       -26.55629623
  -exchange      EXHF   =         0.00000000
  -V(xc)+E(xc)   XCENC  =         4.34918212
  PAW double counting   =         4.26805487       -4.28581044
  entropy T*S    EENTRO =         0.00038183
  eigenvalues    EBANDS =       -21.74536503
  atomic energy  EATOM  =        24.95726533
  Solvation  Ediel_sol  =         0.00000000
  ---------------------------------------------------
  free energy    TOTEN  =        -1.96346150 eV

  energy without entropy =       -1.96384333  energy(sigma->0) =       -1.96358877


--------------------------------------------------------------------------------------------------------




--------------------------------------- Iteration      1(   2)  ---------------------------------------


     EDDAV:  cpu time    0.1328: real time    0.1332
       DOS:  cpu time    0.0002: real time    0.0002
    --------------------------------------------
      LOOP:  cpu time    0.1329: real time    0.1334

 eigenvalue-minimisations  :   168
 total energy-change (2. order) :-0.5359822E+01  (-0.5364840E+01)
 number of electron       2.0000000 magnetization 
 augmentation part        2.0000000 magnetization 

 Free energy of the ion-electron system (eV)
  ---------------------------------------------------
  alpha Z        PSCENC =         0.00284530
  Ewald energy   TEWEN  =        17.04628075
  -Hartree energ DENC   =       -26.55629623
  -exchange      EXHF   =         0.00000000
  -V(xc)+E(xc)   XCENC  =         4.34918212
  PAW double counting   =         4.26805487       -4.28581044
  entropy T*S    EENTRO =         0.00612863
  eigenvalues    EBANDS =       -27.11093388
  atomic energy  EATOM  =        24.95726533
  Solvation  Ediel_sol  =         0.00000000
  ---------------------------------------------------
  free energy    TOTEN  =        -7.32328355 eV

  energy without entropy =       -7.32941218  energy(sigma->0) =       -7.32532642


--------------------------------------------------------------------------------------------------------




--------------------------------------- Iteration      1(   3)  ---------------------------------------


     EDDAV:  cpu time    0.1731: real time    0.1736
       DOS:  cpu time    0.0002: real time    0.0002
    --------------------------------------------
      LOOP:  cpu time    0.1732: real time    0.1738

 eigenvalue-minimisations  :   248
 total energy-change (2. order) :-0.1064367E+00  (-0.1061070E+00)
 number of electron       2.0000000 magnetization 
 augmentation part        2.0000000 magnetization 

 Free energy of the ion-electron system (eV)
  ---------------------------------------------------
  alpha Z        PSCENC =         0.00284530
  Ewald energy   TEWEN  =        17.04628075
  -Hartree energ DENC   =       -26.55629623
  -exchange      EXHF   =         0.00000000
  -V(xc)+E(xc)   XCENC  =         4.34918212
  PAW double counting   =         4.26805487       -4.28581044
  entropy T*S    EENTRO =         0.00579792
  eigenvalues    EBANDS =       -27.21703990
  atomic energy  EATOM  =        24.95726533
  Solvation  Ediel_sol  =         0.00000000
  ---------------------------------------------------
  free energy    TOTEN  =        -7.42972028 eV

  energy without entropy =       -7.43551820  energy(sigma->0) =       -7.43165292


--------------------------------------------------------------------------------------------------------




--------------------------------------- Iteration      1(   4)  ---------------------------------------


     EDDAV:  cpu time    0.1364: real time    0.1369
       DOS:  cpu time    0.0001: real time    0.0001
    --------------------------------------------
      LOOP:  cpu time    0.1366: real time    0.1370

 eigenvalue-minimisations  :   184
 total energy-change (2. order) :-0.6109381E-04  (-0.6109346E-04)
 number of electron       2.0000000 magnetization 
 augmentation part        2.0000000 magnetization 

 Free energy of the ion-electron system (eV)
  ---------------------------------------------------
  alpha Z        PSCENC =         0.00284530
  Ewald energy   TEWEN  =        17.04628075
  -Hartree energ DENC   =       -26.55629623
  -exchange      EXHF   =         0.00000000
  -V(xc)+E(xc)   XCENC  =         4.34918212
  PAW double counting   =         4.26805487       -4.28581044
  entropy T*S    EENTRO =         0.00579791
  eigenvalues    EBANDS =       -27.21710099
  atomic energy  EATOM  =        24.95726533
  Solvation  Ediel_sol  =         0.00000000
  ---------------------------------------------------
  free energy    TOTEN  =        -7.42978138 eV

  energy without entropy =       -7.43557929  energy(sigma->0) =       -7.43171401


--------------------------------------------------------------------------------------------------------




--------------------------------------- Iteration      1(   5)  ---------------------------------------


     EDDAV:  cpu time    0.1925: real time    0.1931
       DOS:  cpu time    0.0002: real time    0.0002
    CHARGE:  cpu time    0.0078: real time    0.0078
    MIXING:  cpu time    0.0014: real time    0.0018
    --------------------------------------------
      LOOP:  cpu time    0.2019: real time    0.2029

 eigenvalue-minimisations  :   280
 total energy-change (2. order) :-0.2422944E-06  (-0.2423793E-06)
 number of electron       2.0000040 magnetization 
 augmentation part        0.0460062 magnetization 

 Broyden mixing:
  rms(total) = 0.44490E+00    rms(broyden)= 0.44477E+00
  rms(prec ) = 0.45913E+00
  weight for this iteration     100.00

 Free energy of the ion-electron system (eV)
  ---------------------------------------------------
  alpha Z        PSCENC =         0.00284530
  Ewald energy   TEWEN  =        17.04628075
  -Hartree energ DENC   =       -26.55629623
  -exchange      EXHF   =         0.00000000
  -V(xc)+E(xc)   XCENC  =         4.34918212
  PAW double counting   =         4.26805487       -4.28581044
  entropy T*S    EENTRO =         0.00579791
  eigenvalues    EBANDS =       -27.21710124
  atomic energy  EATOM  =        24.95726533
  Solvation  Ediel_sol  =         0.00000000
  ---------------------------------------------------
  free energy    TOTEN  =        -7.42978162 eV

  energy without entropy =       -7.43557953  energy(sigma->0) =       -7.43171426


--------------------------------------------------------------------------------------------------------




--------------------------------------- Iteration      1(   6)  ---------------------------------------


    POTLOK:  cpu time    0.0126: real time    0.0128
    SETDIJ:  cpu time    0.0009: real time    0.0009
    EDDIAG:  cpu time    0.0508: real time    0.0522
  RMM-DIIS:  cpu time    0.1050: real time    0.1052
    ORTHCH:  cpu time    0.0027: real time    0.0040
       DOS:  cpu time    0.0002: real time    0.0001
    CHARGE:  cpu time    0.0082: real time    0.0083
    MIXING:  cpu time    0.0008: real time    0.0009
    --------------------------------------------
      LOOP:  cpu time    0.1810: real time    0.1843

 eigenvalue-minimisations  :   160
 total energy-change (2. order) : 0.4398676E+00  (-0.1705831E-01)
 number of electron       2.0000038 magnetization 
 augmentation part        0.0442431 magnetization 

 Broyden mixing:
  rms(total) = 0.24485E+00    rms(broyden)= 0.24485E+00
  rms(prec ) = 0.25347E+00
  weight for this iteration     100.00

 eigenvalues of (default mixing * dielectric matrix)
  average eigenvalue GAMMA=   2.1991
  2.1991

 Free energy of the ion-electron system (eV)
  ---------------------------------------------------
  alpha Z        PSCENC =         0.00284530
  Ewald energy   TEWEN  =        17.04628075
  -Hartree energ DENC   =       -29.03627060
  -exchange      EXHF   =         0.00000000
  -V(xc)+E(xc)   XCENC  =         4.70401066
  PAW double counting   =        10.99988197      -11.03099342
  entropy T*S    EENTRO =         0.00579791
  eigenvalues    EBANDS =       -24.63873194
  atomic energy  EATOM  =        24.95726533
  Solvation  Ediel_sol  =         0.00000000
  ---------------------------------------------------
  free energy    TOTEN  =        -6.98991404 eV

  energy without entropy =       -6.99571196  energy(sigma->0) =       -6.99184668


--------------------------------------------------------------------------------------------------------




--------------------------------------- Iteration      1(   7)  ---------------------------------------


    POTLOK:  cpu time    0.0138: real time    0.0181
    SETDIJ:  cpu time    0.0022: real time    0.0022
    EDDIAG:  cpu time    0.0386: real time    0.0388
  RMM-DIIS:  cpu time    0.1018: real time    0.1020
    ORTHCH:  cpu time    0.0025: real time    0.0025
       DOS:  cpu time    0.0002: real time    0.0002
    CHARGE:  cpu time    0.0077: real time    0.0077
    MIXING:  cpu time    0.0008: real time    0.0009
    --------------------------------------------
      LOOP:  cpu time    0.1675: real time    0.1723

 eigenvalue-minimisations  :   160
 total energy-change (2. order) : 0.2418756E+00  (-0.4672017E-01)
 number of electron       2.0000035 magnetization 
 augmentation part        0.0413999 magnetization 

 Broyden mixing:
  rms(total) = 0.29137E-01    rms(broyden)= 0.29059E-01
  rms(prec ) = 0.30444E-01
  weight for this iteration     100.00

 eigenvalues of (default mixing * dielectric matrix)
  average eigenvalue GAMMA=   2.5950
  2.5950  2.5950

 Free energy of the ion-electron system (eV)
  ---------------------------------------------------
  alpha Z        PSCENC =         0.00284530
  Ewald energy   TEWEN  =        17.04628075
  -Hartree energ DENC   =       -32.84892763
  -exchange      EXHF   =         0.00000000
  -V(xc)+E(xc)   XCENC  =         5.25600575
  PAW double counting   =        24.43548013      -24.48790347
  entropy T*S    EENTRO =         0.00579791
  eigenvalues    EBANDS =       -21.11488254
  atomic energy  EATOM  =        24.95726533
  Solvation  Ediel_sol  =         0.00000000
  ---------------------------------------------------
  free energy    TOTEN  =        -6.74803847 eV

  energy without entropy =       -6.75383638  energy(sigma->0) =       -6.74997110


--------------------------------------------------------------------------------------------------------




--------------------------------------- Iteration      1(   8)  ---------------------------------------


    POTLOK:  cpu time    0.0112: real time    0.0114
    SETDIJ:  cpu time    0.0011: real time    0.0011
    EDDIAG:  cpu time    0.0431: real time    0.0432
  RMM-DIIS:  cpu time    0.0989: real time    0.0991
    ORTHCH:  cpu time    0.0025: real time    0.0025
       DOS:  cpu time    0.0002: real time    0.0002
    CHARGE:  cpu time    0.0076: real time    0.0076
    MIXING:  cpu time    0.0006: real time    0.0006
    --------------------------------------------
      LOOP:  cpu time    0.1650: real time    0.1655

 eigenvalue-minimisations  :   160
 total energy-change (2. order) :-0.3573903E-02  (-0.4683157E-03)
 number of electron       2.0000035 magnetization 
 augmentation part        0.0414633 magnetization 

 Broyden mixing:
  rms(total) = 0.22971E-01    rms(broyden)= 0.22968E-01
  rms(prec ) = 0.24024E-01
  weight for this iteration     100.00

 eigenvalues of (default mixing * dielectric matrix)
  average eigenvalue GAMMA=   1.9866
  0.9336  2.5131  2.5131

 Free energy of the ion-electron system (eV)
  ---------------------------------------------------
  alpha Z        PSCENC =         0.00284530
  Ewald energy   TEWEN  =        17.04628075
  -Hartree energ DENC   =       -32.77707627
  -exchange      EXHF   =         0.00000000
  -V(xc)+E(xc)   XCENC  =         5.23113190
  PAW double counting   =        23.27432180      -23.32087872
  entropy T*S    EENTRO =         0.00579791
  eigenvalues    EBANDS =       -21.17130038
  atomic energy  EATOM  =        24.95726533
  Solvation  Ediel_sol  =         0.00000000
  ---------------------------------------------------
  free energy    TOTEN  =        -6.75161237 eV

  energy without entropy =       -6.75741028  energy(sigma->0) =       -6.75354501


--------------------------------------------------------------------------------------------------------




--------------------------------------- Iteration      1(   9)  ---------------------------------------


    POTLOK:  cpu time    0.0106: real time    0.0108
    SETDIJ:  cpu time    0.0009: real time    0.0009
    EDDIAG:  cpu time    0.0375: real time    0.0376
  RMM-DIIS:  cpu time    0.0967: real time    0.0969
    ORTHCH:  cpu time    0.0025: real time    0.0025
       DOS:  cpu time    0.0002: real time    0.0002
    CHARGE:  cpu time    0.0074: real time    0.0074
    MIXING:  cpu time    0.0006: real time    0.0006
    --------------------------------------------
      LOOP:  cpu time    0.1564: real time    0.1569

 eigenvalue-minimisations  :   160
 total energy-change (2. order) : 0.2924974E-02  (-0.3602632E-03)
 number of electron       2.0000035 magnetization 
 augmentation part        0.0412374 magnetization 

 Broyden mixing:
  rms(total) = 0.34951E-02    rms(broyden)= 0.34865E-02
  rms(prec ) = 0.45218E-02
  weight for this iteration     100.00

 eigenvalues of (default mixing * dielectric matrix)
  average eigenvalue GAMMA=   2.5858
  4.2802  0.9974  2.7030  2.3625

 Free energy of the ion-electron system (eV)
  ---------------------------------------------------
  alpha Z        PSCENC =         0.00284530
  Ewald energy   TEWEN  =        17.04628075
  -Hartree energ DENC   =       -33.17048104
  -exchange      EXHF   =         0.00000000
  -V(xc)+E(xc)   XCENC  =         5.28436996
  PAW double counting   =        24.62604726      -24.67456141
  entropy T*S    EENTRO =         0.00579791
  eigenvalues    EBANDS =       -20.82625145
  atomic energy  EATOM  =        24.95726533
  Solvation  Ediel_sol  =         0.00000000
  ---------------------------------------------------
  free energy    TOTEN  =        -6.74868740 eV

  energy without entropy =       -6.75448531  energy(sigma->0) =       -6.75062003


--------------------------------------------------------------------------------------------------------




--------------------------------------- Iteration      1(  10)  ---------------------------------------


    POTLOK:  cpu time    0.0103: real time    0.0105
    SETDIJ:  cpu time    0.0009: real time    0.0009
    EDDIAG:  cpu time    0.0378: real time    0.0379
  RMM-DIIS:  cpu time    0.1007: real time    0.1009
    ORTHCH:  cpu time    0.0025: real time    0.0025
       DOS:  cpu time    0.0002: real time    0.0002
    CHARGE:  cpu time    0.0074: real time    0.0075
    MIXING:  cpu time    0.0007: real time    0.0007
    --------------------------------------------
      LOOP:  cpu time    0.1605: real time    0.1610

 eigenvalue-minimisations  :   160
 total energy-change (2. order) :-0.1108036E-02  (-0.1187520E-03)
 number of electron       2.0000035 magnetization 
 augmentation part        0.0411563 magnetization 

 Broyden mixing:
  rms(total) = 0.21239E-02    rms(broyden)= 0.21213E-02
  rms(prec ) = 0.23949E-02
  weight for this iteration     100.00

 eigenvalues of (default mixing * dielectric matrix)
  average eigenvalue GAMMA=   2.2271
  4.2029  2.4514  2.4514  1.0148  1.0148

 Free energy of the ion-electron system (eV)
  ---------------------------------------------------
  alpha Z        PSCENC =         0.00284530
  Ewald energy   TEWEN  =        17.04628075
  -Hartree energ DENC   =       -33.36951854
  -exchange      EXHF   =         0.00000000
  -V(xc)+E(xc)   XCENC  =         5.30191918
  PAW double counting   =        24.67574125      -24.72477496
  entropy T*S    EENTRO =         0.00579791
  eigenvalues    EBANDS =       -20.64535166
  atomic energy  EATOM  =        24.95726533
  Solvation  Ediel_sol  =         0.00000000
  ---------------------------------------------------
  free energy    TOTEN  =        -6.74979543 eV

  energy without entropy =       -6.75559334  energy(sigma->0) =       -6.75172807


--------------------------------------------------------------------------------------------------------




--------------------------------------- Iteration      1(  11)  ---------------------------------------


    POTLOK:  cpu time    0.0102: real time    0.0104
    SETDIJ:  cpu time    0.0009: real time    0.0009
    EDDIAG:  cpu time    0.0373: real time    0.0373
  RMM-DIIS:  cpu time    0.0996: real time    0.0998
    ORTHCH:  cpu time    0.0025: real time    0.0025
       DOS:  cpu time    0.0002: real time    0.0002
    CHARGE:  cpu time    0.0074: real time    0.0074
    MIXING:  cpu time    0.0007: real time    0.0007
    --------------------------------------------
      LOOP:  cpu time    0.1586: real time    0.1592

 eigenvalue-minimisations  :   160
 total energy-change (2. order) :-0.5735484E-03  (-0.2437139E-05)
 number of electron       2.0000035 magnetization 
 augmentation part        0.0411460 magnetization 

 Broyden mixing:
  rms(total) = 0.11762E-02    rms(broyden)= 0.11759E-02
  rms(prec ) = 0.14638E-02
  weight for this iteration     100.00

 eigenvalues of (default mixing * dielectric matrix)
  average eigenvalue GAMMA=   2.7283
  5.5763  3.9149  2.6211  2.2812  1.0198  0.9566

 Free energy of the ion-electron system (eV)
  ---------------------------------------------------
  alpha Z        PSCENC =         0.00284530
  Ewald energy   TEWEN  =        17.04628075
  -Hartree energ DENC   =       -33.37459625
  -exchange      EXHF   =         0.00000000
  -V(xc)+E(xc)   XCENC  =         5.30111856
  PAW double counting   =        24.64892174      -24.69775854
  entropy T*S    EENTRO =         0.00579791
  eigenvalues    EBANDS =       -20.64024378
  atomic energy  EATOM  =        24.95726533
  Solvation  Ediel_sol  =         0.00000000
  ---------------------------------------------------
  free energy    TOTEN  =        -6.75036898 eV

  energy without entropy =       -6.75616689  energy(sigma->0) =       -6.75230162


--------------------------------------------------------------------------------------------------------




--------------------------------------- Iteration      1(  12)  ---------------------------------------


    POTLOK:  cpu time    0.0099: real time    0.0101
    SETDIJ:  cpu time    0.0009: real time    0.0009
    EDDIAG:  cpu time    0.0376: real time    0.0377
  RMM-DIIS:  cpu time    0.0973: real time    0.0975
    ORTHCH:  cpu time    0.0026: real time    0.0026
       DOS:  cpu time    0.0002: real time    0.0002
    CHARGE:  cpu time    0.0074: real time    0.0074
    MIXING:  cpu time    0.0008: real time    0.0008
    --------------------------------------------
      LOOP:  cpu time    0.1567: real time    0.1572

 eigenvalue-minimisations  :   160
 total energy-change (2. order) :-0.1960546E-02  (-0.3866382E-04)
 number of electron       2.0000035 magnetization 
 augmentation part        0.0411528 magnetization 

 Broyden mixing:
  rms(total) = 0.74289E-03    rms(broyden)= 0.74288E-03
  rms(prec ) = 0.79914E-03
  weight for this iteration     100.00

 eigenvalues of (default mixing * dielectric matrix)
  average eigenvalue GAMMA=   2.7281
  5.7678  3.9365  0.9769  1.0602  2.5697  2.5697  2.2160

 Free energy of the ion-electron system (eV)
  ---------------------------------------------------
  alpha Z        PSCENC =         0.00284530
  Ewald energy   TEWEN  =        17.04628075
  -Hartree energ DENC   =       -33.36602059
  -exchange      EXHF   =         0.00000000
  -V(xc)+E(xc)   XCENC  =         5.29606528
  PAW double counting   =        24.57757951      -24.62616530
  entropy T*S    EENTRO =         0.00579791
  eigenvalues    EBANDS =       -20.64597771
  atomic energy  EATOM  =        24.95726533
  Solvation  Ediel_sol  =         0.00000000
  ---------------------------------------------------
  free energy    TOTEN  =        -6.75232953 eV

  energy without entropy =       -6.75812744  energy(sigma->0) =       -6.75426216


--------------------------------------------------------------------------------------------------------




--------------------------------------- Iteration      1(  13)  ---------------------------------------


    POTLOK:  cpu time    0.0101: real time    0.0102
    SETDIJ:  cpu time    0.0010: real time    0.0010
    EDDIAG:  cpu time    0.0373: real time    0.0374
  RMM-DIIS:  cpu time    0.1010: real time    0.1013
    ORTHCH:  cpu time    0.0025: real time    0.0025
       DOS:  cpu time    0.0002: real time    0.0002
    CHARGE:  cpu time    0.0074: real time    0.0074
    MIXING:  cpu time    0.0009: real time    0.0009
    --------------------------------------------
      LOOP:  cpu time    0.1602: real time    0.1608

 eigenvalue-minimisations  :   160
 total energy-change (2. order) :-0.1611434E-03  (-0.1304570E-05)
 number of electron       2.0000035 magnetization 
 augmentation part        0.0411424 magnetization 

 Broyden mixing:
  rms(total) = 0.47251E-03    rms(broyden)= 0.47247E-03
  rms(prec ) = 0.51220E-03
  weight for this iteration     100.00

 eigenvalues of (default mixing * dielectric matrix)
  average eigenvalue GAMMA=   2.7671
  6.9351  4.2399  3.1975  2.5946  2.2539  1.0219  1.0219  0.8721

 Free energy of the ion-electron system (eV)
  ---------------------------------------------------
  alpha Z        PSCENC =         0.00284530
  Ewald energy   TEWEN  =        17.04628075
  -Hartree energ DENC   =       -33.38106734
  -exchange      EXHF   =         0.00000000
  -V(xc)+E(xc)   XCENC  =         5.29771178
  PAW double counting   =        24.60556423      -24.65430964
  entropy T*S    EENTRO =         0.00579791
  eigenvalues    EBANDS =       -20.63257899
  atomic energy  EATOM  =        24.95726533
  Solvation  Ediel_sol  =         0.00000000
  ---------------------------------------------------
  free energy    TOTEN  =        -6.75249067 eV

  energy without entropy =       -6.75828858  energy(sigma->0) =       -6.75442331


--------------------------------------------------------------------------------------------------------




--------------------------------------- Iteration      1(  14)  ---------------------------------------


    POTLOK:  cpu time    0.0097: real time    0.0099
    SETDIJ:  cpu time    0.0009: real time    0.0009
    EDDIAG:  cpu time    0.0374: real time    0.0375
  RMM-DIIS:  cpu time    0.0991: real time    0.0994
    ORTHCH:  cpu time    0.0025: real time    0.0025
       DOS:  cpu time    0.0001: real time    0.0001
    CHARGE:  cpu time    0.0074: real time    0.0074
    MIXING:  cpu time    0.0009: real time    0.0009
    --------------------------------------------
      LOOP:  cpu time    0.1581: real time    0.1586

 eigenvalue-minimisations  :   160
 total energy-change (2. order) :-0.2167573E-03  (-0.1713110E-05)
 number of electron       2.0000035 magnetization 
 augmentation part        0.0411419 magnetization 

 Broyden mixing:
  rms(total) = 0.24660E-03    rms(broyden)= 0.24659E-03
  rms(prec ) = 0.26321E-03
  weight for this iteration     100.00

 eigenvalues of (default mixing * dielectric matrix)
  average eigenvalue GAMMA=   2.8338
  7.3456  4.4736  3.6630  2.4087  2.4087  2.2277  1.0597  1.0074  0.9097

 Free energy of the ion-electron system (eV)
  ---------------------------------------------------
  alpha Z        PSCENC =         0.00284530
  Ewald energy   TEWEN  =        17.04628075
  -Hartree energ DENC   =       -33.38206756
  -exchange      EXHF   =         0.00000000
  -V(xc)+E(xc)   XCENC  =         5.29727093
  PAW double counting   =        24.60062961      -24.64935241
  entropy T*S    EENTRO =         0.00579791
  eigenvalues    EBANDS =       -20.63137729
  atomic energy  EATOM  =        24.95726533
  Solvation  Ediel_sol  =         0.00000000
  ---------------------------------------------------
  free energy    TOTEN  =        -6.75270743 eV

  energy without entropy =       -6.75850534  energy(sigma->0) =       -6.75464006


--------------------------------------------------------------------------------------------------------




--------------------------------------- Iteration      1(  15)  ---------------------------------------


    POTLOK:  cpu time    0.0098: real time    0.0099
    SETDIJ:  cpu time    0.0010: real time    0.0009
    EDDIAG:  cpu time    0.0369: real time    0.0370
  RMM-DIIS:  cpu time    0.0954: real time    0.0956
    ORTHCH:  cpu time    0.0024: real time    0.0024
       DOS:  cpu time    0.0002: real time    0.0002
    CHARGE:  cpu time    0.0074: real time    0.0074
    MIXING:  cpu time    0.0013: real time    0.0013
    --------------------------------------------
      LOOP:  cpu time    0.1543: real time    0.1548

 eigenvalue-minimisations  :   150
 total energy-change (2. order) :-0.4148908E-04  (-0.8433825E-07)
 number of electron       2.0000035 magnetization 
 augmentation part        0.0411431 magnetization 

 Broyden mixing:
  rms(total) = 0.79576E-04    rms(broyden)= 0.79573E-04
  rms(prec ) = 0.92903E-04
  weight for this iteration     100.00

 eigenvalues of (default mixing * dielectric matrix)
  average eigenvalue GAMMA=   2.8607
  7.8226  5.2292  3.6920  3.1107  2.4285  2.2139  1.1313  1.0767  0.9903  0.9115

 Free energy of the ion-electron system (eV)
  ---------------------------------------------------
  alpha Z        PSCENC =         0.00284530
  Ewald energy   TEWEN  =        17.04628075
  -Hartree energ DENC   =       -33.38049518
  -exchange      EXHF   =         0.00000000
  -V(xc)+E(xc)   XCENC  =         5.29689246
  PAW double counting   =        24.59625940      -24.64493818
  entropy T*S    EENTRO =         0.00579791
  eigenvalues    EBANDS =       -20.63265670
  atomic energy  EATOM  =        24.95726533
  Solvation  Ediel_sol  =         0.00000000
  ---------------------------------------------------
  free energy    TOTEN  =        -6.75274892 eV

  energy without entropy =       -6.75854683  energy(sigma->0) =       -6.75468155


--------------------------------------------------------------------------------------------------------




--------------------------------------- Iteration      1(  16)  ---------------------------------------


    POTLOK:  cpu time    0.0100: real time    0.0101
    SETDIJ:  cpu time    0.0009: real time    0.0009
    EDDIAG:  cpu time    0.0374: real time    0.0375
  RMM-DIIS:  cpu time    0.0961: real time    0.0963
    ORTHCH:  cpu time    0.0024: real time    0.0024
       DOS:  cpu time    0.0002: real time    0.0002
    CHARGE:  cpu time    0.0074: real time    0.0074
    MIXING:  cpu time    0.0010: real time    0.0010
    --------------------------------------------
      LOOP:  cpu time    0.1554: real time    0.1559

 eigenvalue-minimisations  :   150
 total energy-change (2. order) :-0.2245911E-04  (-0.3370677E-07)
 number of electron       2.0000035 magnetization 
 augmentation part        0.0411439 magnetization 

 Broyden mixing:
  rms(total) = 0.26281E-04    rms(broyden)= 0.26265E-04
  rms(prec ) = 0.34050E-04
  weight for this iteration     100.00

 eigenvalues of (default mixing * dielectric matrix)
  average eigenvalue GAMMA=   3.0152
  8.2758  5.9180  4.1727  3.5339  2.5376  2.5376  2.1922  1.0488  1.0488  0.9895
  0.9129

 Free energy of the ion-electron system (eV)
  ---------------------------------------------------
  alpha Z        PSCENC =         0.00284530
  Ewald energy   TEWEN  =        17.04628075
  -Hartree energ DENC   =       -33.38035738
  -exchange      EXHF   =         0.00000000
  -V(xc)+E(xc)   XCENC  =         5.29674828
  PAW double counting   =        24.59404883      -24.64273282
  entropy T*S    EENTRO =         0.00579791
  eigenvalues    EBANDS =       -20.63266758
  atomic energy  EATOM  =        24.95726533
  Solvation  Ediel_sol  =         0.00000000
  ---------------------------------------------------
  free energy    TOTEN  =        -6.75277137 eV

  energy without entropy =       -6.75856929  energy(sigma->0) =       -6.75470401


--------------------------------------------------------------------------------------------------------




--------------------------------------- Iteration      1(  17)  ---------------------------------------


    POTLOK:  cpu time    0.0100: real time    0.0102
    SETDIJ:  cpu time    0.0009: real time    0.0009
    EDDIAG:  cpu time    0.0368: real time    0.0369
  RMM-DIIS:  cpu time    0.0976: real time    0.0978
    ORTHCH:  cpu time    0.0024: real time    0.0024
       DOS:  cpu time    0.0001: real time    0.0001
    --------------------------------------------
      LOOP:  cpu time    0.1479: real time    0.1484

 eigenvalue-minimisations  :   140
 total energy-change (2. order) :-0.7410136E-05  ( 0.0000000E+00)
 number of electron       2.0000035 magnetization 
 augmentation part        0.0411439 magnetization 

 Free energy of the ion-electron system (eV)
  ---------------------------------------------------
  alpha Z        PSCENC =         0.00284530
  Ewald energy   TEWEN  =        17.04628075
  -Hartree energ DENC   =       -33.38041471
  -exchange      EXHF   =         0.00000000
  -V(xc)+E(xc)   XCENC  =         5.29672355
  PAW double counting   =        24.59333185      -24.64201320
  entropy T*S    EENTRO =         0.00579791
  eigenvalues    EBANDS =       -20.63259557
  atomic energy  EATOM  =        24.95726533
  Solvation  Ediel_sol  =         0.00000000
  ---------------------------------------------------
  free energy    TOTEN  =        -6.75277879 eV

  energy without entropy =       -6.75857670  energy(sigma->0) =       -6.75471142


--------------------------------------------------------------------------------------------------------




 average (electrostatic) potential at core
  the test charge radii are     0.5201
  (the norm of the test charge is              1.0001)
       1 -41.5948       2 -41.5990
 
 
 
 E-fermi : -10.2321     XC(G=0):  -0.1432     alpha+bet : -0.0161


 k-point     1 :       0.0000    0.0000    0.0000
  band No.  band energies     occupation 
      1     -10.3165      2.00070
      2      -0.1089      0.00000
      3       0.0009      0.00000
      4       0.0710      0.00000
      5       0.3084      0.00000
      6       0.5188      0.00000
      7       0.9755      0.00000
      8       0.9754      0.00000

 k-point     2 :       0.2500   -0.0000    0.0000
  band No.  band energies     occupation 
      1     -10.3163      1.99983
      2      -0.0172      0.00000
      3       0.0751      0.00000
      4       0.1671      0.00000
      5       0.3675      0.00000
      6       0.6113      0.00000
      7       0.6708      0.00000
      8       0.8789      0.00000

 k-point     3 :       0.5000   -0.0000    0.0000
  band No.  band energies     occupation 
      1     -10.3163      1.99981
      2       0.1918      0.00000
      3       0.2421      0.00000
      4       0.2661      0.00000
      5       0.4525      0.00000
      6       0.4598      0.00000
      7       0.4911      0.00000
      8       0.8119      0.00000

 k-point     4 :       0.0000    0.2500    0.0000
  band No.  band energies     occupation 
      1     -10.3163      1.99983
      2      -0.0172      0.00000
      3       0.0750      0.00000
      4       0.1671      0.00000
      5       0.3675      0.00000
      6       0.6113      0.00000
      7       0.6709      0.00000
      8       0.8788      0.00000

 k-point     5 :       0.2500    0.2500    0.0000
  band No.  band energies     occupation 
      1     -10.3163      1.99983
      2      -0.0172      0.00000
      3       0.0751      0.00000
      4       0.1671      0.00000
      5       0.3675      0.00000
      6       0.6109      0.00000
      7       0.6707      0.00000
      8       0.8779      0.00000

 k-point     6 :       0.5000    0.2500    0.0000
  band No.  band energies     occupation 
      1     -10.3163      2.00015
      2       0.1635      0.00000
      3       0.1827      0.00000
      4       0.3598      0.00000
      5       0.4783      0.00000
      6       0.4875      0.00000
      7       0.5422      0.00000
      8       0.7440      0.00000

 k-point     7 :      -0.2500    0.2500    0.0000
  band No.  band energies     occupation 
      1     -10.3163      2.00015
      2       0.1634      0.00000
      3       0.1828      0.00000
      4       0.3598      0.00000
      5       0.4794      0.00000
      6       0.4899      0.00000
      7       0.5400      0.00000
      8       0.7447      0.00000

 k-point     8 :       0.0000    0.5000    0.0000
  band No.  band energies     occupation 
      1     -10.3163      1.99981
      2       0.1918      0.00000
      3       0.2422      0.00000
      4       0.2657      0.00000
      5       0.4521      0.00000
      6       0.4593      0.00000
      7       0.4928      0.00000
      8       0.8118      0.00000

 k-point     9 :       0.2500    0.5000    0.0000
  band No.  band energies     occupation 
      1     -10.3163      2.00015
      2       0.1635      0.00000
      3       0.1828      0.00000
      4       0.3598      0.00000
      5       0.4797      0.00000
      6       0.4875      0.00000
      7       0.5421      0.00000
      8       0.7437      0.00000

 k-point    10 :       0.5000    0.5000    0.0000
  band No.  band energies     occupation 
      1     -10.3163      1.99981
      2       0.1918      0.00000
      3       0.2438      0.00000
      4       0.2638      0.00000
      5       0.4516      0.00000
      6       0.4604      0.00000
      7       0.4920      0.00000
      8       0.8105      0.00000


--------------------------------------------------------------------------------------------------------


 soft charge-density along one line, spin component           1
         0         1         2         3         4         5         6         7         8         9
 total charge-density along one line
 
 pseudopotential strength for first ion, spin component:           1
 -2.344  -4.039   0.000   0.002   0.000
 -4.039  -6.874   0.000   0.005   0.000
  0.000   0.000  -0.341   0.000  -0.000
  0.002   0.005   0.000  -0.335   0.000
  0.000   0.000  -0.000   0.000  -0.341
 total augmentation occupancy for first ion, spin component:           1
  3.137  -0.500  -0.000  -0.377   0.000
 -0.500   0.080   0.000   0.060  -0.000
 -0.000   0.000   0.000   0.000  -0.000
 -0.377   0.060   0.000   0.045  -0.000
  0.000  -0.000  -0.000  -0.000   0.000


------------------------ aborting loop because EDIFF is reached ----------------------------------------


    CHARGE:  cpu time    0.0071: real time    0.0071
    FORLOC:  cpu time    0.0005: real time    0.0005
    FORNL :  cpu time    0.0359: real time    0.0360
    STRESS:  cpu time    0.0139: real time    0.0143
    FORHAR:  cpu time    0.0033: real time    0.0034
    MIXING:  cpu time    0.0014: real time    0.0014
    OFIELD:  cpu time    0.0001: real time    0.0001
 only isotrope contributions calculated
  for stress because ISIF=1 (only pressure is correct)

  FORCE on cell =-STRESS in cart. coord.  units (eV):
  Direction    XX          YY          ZZ          XY          YZ          ZX
  --------------------------------------------------------------------------------------
  Alpha Z     0.00285     0.00285     0.00285
  Ewald       3.26470     3.26470    10.51687     0.00000    -0.00001     0.00021
  Hartree    14.33495    14.33498     4.71158    -0.00003    -0.00000     0.00002
  E(xc)      -5.97033    -5.97032    -5.74979    -0.00001    -0.00000     0.00000
  Local     -27.47685   -27.47698   -17.23600     0.00014     0.00001    -0.00015
  n-local    -5.70726    -5.70726    -5.70726     0.00000     0.00000     0.00000
  augment     0.24834     0.24834     0.24834     0.00000     0.00000     0.00000
  Kinetic    20.84525    20.84506    13.73473     0.00016     0.00001    -0.00008
  Fock        0.00000     0.00000     0.00000     0.00000     0.00000     0.00000
  -------------------------------------------------------------------------------------
  Total      -0.45834    -0.45862     0.52133     0.00026    -0.00000     0.00001
  in kB      -0.21441    -0.21455     0.24388     0.00012    -0.00000     0.00000
  external pressure =       -0.06 kB  Pullay stress =        0.00 kB


 VOLUME and BASIS-vectors are now :
 -----------------------------------------------------------------------------
  energy-cutoff  :      400.00
  volume of cell :     3424.83
      direct lattice vectors                 reciprocal lattice vectors
    11.214359184  0.000000000  0.000000000     0.089171390 -0.051483119  0.000000000
     5.607178664  9.711919634  0.000000000     0.000000000  0.102966256  0.000000000
     0.000000000  0.000000000 31.445607950     0.000000000  0.000000000  0.031800943

  length of vectors
    11.214359184 11.214358455 31.445607950     0.102966249  0.102966256  0.031800943


 FORCES acting on ions
    electron-ion (+dipol)            ewald-force                    non-local-force                 convergence-correction
 -----------------------------------------------------------------------------------------------
   -.230E-03 -.334E-04 -.205E+02   0.278E-03 -.179E-04 0.256E+02   -.156E-02 -.218E-02 -.505E+01   0.287E-07 0.910E-07 0.178E-03
   0.202E-03 -.563E-04 0.205E+02   -.278E-03 0.179E-04 -.256E+02   -.164E-02 -.211E-02 0.504E+01   0.287E-07 0.946E-07 -.177E-03
 -----------------------------------------------------------------------------------------------
   -.279E-04 -.897E-04 -.603E-03   -.141E-17 0.495E-17 0.000E+00   -.320E-02 -.429E-02 -.106E-02   0.574E-07 0.186E-06 0.539E-06
 
 
 POSITION                                       TOTAL-FORCE (eV/Angst)
 -----------------------------------------------------------------------------------
      5.00000      5.00000      5.37546         0.000104     -0.000039     -0.000795
      5.00000      5.00000      4.62454        -0.000104      0.000039      0.000795
 -----------------------------------------------------------------------------------
    total drift:                               -0.003223     -0.004384     -0.001667


--------------------------------------------------------------------------------------------------------



  FREE ENERGIE OF THE ION-ELECTRON SYSTEM (eV)
  ---------------------------------------------------
  free  energy   TOTEN  =        -6.75277879 eV

  energy  without entropy=       -6.75857670  energy(sigma->0) =       -6.75471142
 


--------------------------------------------------------------------------------------------------------


    POTLOK:  cpu time    0.0112: real time    0.0112


--------------------------------------------------------------------------------------------------------


 stress matrix after NEB project (eV)
     -0.45834      0.00026      0.00001
      0.00026     -0.45862     -0.00000
      0.00001     -0.00000      0.52133
  FORCES: max atom, RMS     0.000803    0.000803
  FORCE total and by dimension    0.001135    0.000795
  Stress total and by dimension    0.831979    0.521330
 Finite differences:
   Step               POTIM =   1.500000000000000E-002
   Degrees of freedom DOF   =            6
    WAVPRE:  cpu time    0.0017: real time    0.0025
    FEWALD:  cpu time    0.0001: real time    0.0001

 real space projection operators:
  total allocation   :         55.00 KBytes
  max/ min on nodes  :          7.50          6.33

    ORTHCH:  cpu time    0.0155: real time    0.0156
     LOOP+:  cpu time    2.8548: real time    2.8778


--------------------------------------- Iteration      2(   1)  ---------------------------------------


    POTLOK:  cpu time    0.0113: real time    0.0141
    SETDIJ:  cpu time    0.0009: real time    0.0009
     EDDAV:  cpu time    0.1456: real time    0.1459
       DOS:  cpu time    0.0002: real time    0.0002
    CHARGE:  cpu time    0.0073: real time    0.0073
    MIXING:  cpu time    0.0005: real time    0.0005
    --------------------------------------------
      LOOP:  cpu time    0.1657: real time    0.1689

 eigenvalue-minimisations  :   192
 total energy-change (2. order) : 0.5878155E-05  (-0.7947656E-02)
 number of electron       2.0000022 magnetization 
 augmentation part        0.0411276 magnetization 

 Broyden mixing:
  rms(total) = 0.72738E-02    rms(broyden)= 0.72584E-02
  rms(prec ) = 0.74088E-02
  weight for this iteration     100.00

 Free energy of the ion-electron system (eV)
  ---------------------------------------------------
  alpha Z        PSCENC =         0.00284530
  Ewald energy   TEWEN  =        17.04245824
  -Hartree energ DENC   =       -33.37980843
  -exchange      EXHF   =         0.00000000
  -V(xc)+E(xc)   XCENC  =         5.29666822
  PAW double counting   =        24.59547942      -24.64416720
  entropy T*S    EENTRO =         0.00579791
  eigenvalues    EBANDS =       -20.62930429
  atomic energy  EATOM  =        24.95726533
  Solvation  Ediel_sol  =         0.00000000
  ---------------------------------------------------
  free energy    TOTEN  =        -6.75276550 eV

  energy without entropy =       -6.75856341  energy(sigma->0) =       -6.75469813


--------------------------------------------------------------------------------------------------------




--------------------------------------- Iteration      2(   2)  ---------------------------------------


    POTLOK:  cpu time    0.0101: real time    0.0103
    SETDIJ:  cpu time    0.0009: real time    0.0009
    EDDIAG:  cpu time    0.0372: real time    0.0373
  RMM-DIIS:  cpu time    0.0980: real time    0.0983
    ORTHCH:  cpu time    0.0024: real time    0.0024
       DOS:  cpu time    0.0002: real time    0.0001
    CHARGE:  cpu time    0.0074: real time    0.0074
    MIXING:  cpu time    0.0004: real time    0.0004
    --------------------------------------------
      LOOP:  cpu time    0.1566: real time    0.1572

 eigenvalue-minimisations  :   160
 total energy-change (2. order) : 0.2628829E-04  (-0.2047757E-04)
 number of electron       2.0000022 magnetization 
 augmentation part        0.0411335 magnetization 

 Broyden mixing:
  rms(total) = 0.43058E-02    rms(broyden)= 0.43040E-02
  rms(prec ) = 0.43875E-02
  weight for this iteration     100.00

 eigenvalues of (default mixing * dielectric matrix)
  average eigenvalue GAMMA=   2.4318
  2.4318

 Free energy of the ion-electron system (eV)
  ---------------------------------------------------
  alpha Z        PSCENC =         0.00284530
  Ewald energy   TEWEN  =        17.04245824
  -Hartree energ DENC   =       -33.37881856
  -exchange      EXHF   =         0.00000000
  -V(xc)+E(xc)   XCENC  =         5.29651935
  PAW double counting   =        24.59158982      -24.64026432
  entropy T*S    EENTRO =         0.00579791
  eigenvalues    EBANDS =       -20.63013227
  atomic energy  EATOM  =        24.95726533
  Solvation  Ediel_sol  =         0.00000000
  ---------------------------------------------------
  free energy    TOTEN  =        -6.75273921 eV

  energy without entropy =       -6.75853712  energy(sigma->0) =       -6.75467185


--------------------------------------------------------------------------------------------------------




--------------------------------------- Iteration      2(   3)  ---------------------------------------


    POTLOK:  cpu time    0.0099: real time    0.0101
    SETDIJ:  cpu time    0.0009: real time    0.0009
    EDDIAG:  cpu time    0.0415: real time    0.0416
  RMM-DIIS:  cpu time    0.0997: real time    0.1000
    ORTHCH:  cpu time    0.0025: real time    0.0025
       DOS:  cpu time    0.0001: real time    0.0001
    CHARGE:  cpu time    0.0073: real time    0.0074
    MIXING:  cpu time    0.0005: real time    0.0005
    --------------------------------------------
      LOOP:  cpu time    0.1626: real time    0.1632

 eigenvalue-minimisations  :   160
 total energy-change (2. order) :-0.1026657E-04  (-0.5379302E-05)
 number of electron       2.0000022 magnetization 
 augmentation part        0.0411347 magnetization 

 Broyden mixing:
  rms(total) = 0.18409E-03    rms(broyden)= 0.18228E-03
  rms(prec ) = 0.19193E-03
  weight for this iteration     100.00

 eigenvalues of (default mixing * dielectric matrix)
  average eigenvalue GAMMA=   1.8143
  1.1779  2.4507

 Free energy of the ion-electron system (eV)
  ---------------------------------------------------
  alpha Z        PSCENC =         0.00284530
  Ewald energy   TEWEN  =        17.04245824
  -Hartree energ DENC   =       -33.37847304
  -exchange      EXHF   =         0.00000000
  -V(xc)+E(xc)   XCENC  =         5.29645454
  PAW double counting   =        24.58542440      -24.63408967
  entropy T*S    EENTRO =         0.00579791
  eigenvalues    EBANDS =       -20.63043247
  atomic energy  EATOM  =        24.95726533
  Solvation  Ediel_sol  =         0.00000000
  ---------------------------------------------------
  free energy    TOTEN  =        -6.75274948 eV

  energy without entropy =       -6.75854739  energy(sigma->0) =       -6.75468211


--------------------------------------------------------------------------------------------------------




--------------------------------------- Iteration      2(   4)  ---------------------------------------


    POTLOK:  cpu time    0.0098: real time    0.0100
    SETDIJ:  cpu time    0.0009: real time    0.0009
    EDDIAG:  cpu time    0.0370: real time    0.0371
  RMM-DIIS:  cpu time    0.0966: real time    0.0970
    ORTHCH:  cpu time    0.0025: real time    0.0025
       DOS:  cpu time    0.0001: real time    0.0001
    --------------------------------------------
      LOOP:  cpu time    0.1469: real time    0.1476

 eigenvalue-minimisations  :   150
 total energy-change (2. order) :-0.1300467E-05  (-0.3026694E-07)
 number of electron       2.0000022 magnetization 
 augmentation part        0.0411347 magnetization 

 Free energy of the ion-electron system (eV)
  ---------------------------------------------------
  alpha Z        PSCENC =         0.00284530
  Ewald energy   TEWEN  =        17.04245824
  -Hartree energ DENC   =       -33.37854913
  -exchange      EXHF   =         0.00000000
  -V(xc)+E(xc)   XCENC  =         5.29646488
  PAW double counting   =        24.58516147      -24.63382757
  entropy T*S    EENTRO =         0.00579791
  eigenvalues    EBANDS =       -20.63036721
  atomic energy  EATOM  =        24.95726533
  Solvation  Ediel_sol  =         0.00000000
  ---------------------------------------------------
  free energy    TOTEN  =        -6.75275078 eV

  energy without entropy =       -6.75854869  energy(sigma->0) =       -6.75468341


--------------------------------------------------------------------------------------------------------




 average (electrostatic) potential at core
  the test charge radii are     0.5201
  (the norm of the test charge is              1.0001)
       1 -41.5921       2 -41.5975
 
 
 
 E-fermi : -10.2310     XC(G=0):  -0.1309     alpha+bet : -0.0161


 k-point     1 :       0.0000    0.0000    0.0000
  band No.  band energies     occupation 
      1     -10.3153      2.00070
      2      -0.1006      0.00000
      3       0.0149      0.00000
      4       0.0840      0.00000
      5       0.3152      0.00000
      6       0.5409      0.00000
      7       0.8311      0.00000
      8       0.9777      0.00000

 k-point     2 :       0.2500   -0.0000    0.0000
  band No.  band energies     occupation 
      1     -10.3151      1.99983
      2      -0.0095      0.00000
      3       0.0900      0.00000
      4       0.1804      0.00000
      5       0.3755      0.00000
      6       0.6322      0.00000
      7       0.6773      0.00000
      8       0.8800      0.00000

 k-point     3 :       0.5000   -0.0000    0.0000
  band No.  band energies     occupation 
      1     -10.3151      1.99981
      2       0.1973      0.00000
      3       0.2516      0.00000
      4       0.2717      0.00000
      5       0.4657      0.00000
      6       0.4739      0.00000
      7       0.5121      0.00000
      8       0.8115      0.00000

 k-point     4 :       0.0000    0.2500    0.0000
  band No.  band energies     occupation 
      1     -10.3151      1.99983
      2      -0.0093      0.00000
      3       0.0899      0.00000
      4       0.1804      0.00000
      5       0.3755      0.00000
      6       0.6324      0.00000
      7       0.6765      0.00000
      8       0.8513      0.00000

 k-point     5 :       0.2500    0.2500    0.0000
  band No.  band energies     occupation 
      1     -10.3151      1.99983
      2      -0.0095      0.00000
      3       0.0900      0.00000
      4       0.1804      0.00000
      5       0.3756      0.00000
      6       0.6316      0.00000
      7       0.6777      0.00000
      8       0.8788      0.00000

 k-point     6 :       0.5000    0.2500    0.0000
  band No.  band energies     occupation 
      1     -10.3152      2.00015
      2       0.1666      0.00000
      3       0.1971      0.00000
      4       0.3733      0.00000
      5       0.4920      0.00000
      6       0.4936      0.00000
      7       0.5461      0.00000
      8       0.7585      0.00000

 k-point     7 :      -0.2500    0.2500    0.0000
  band No.  band energies     occupation 
      1     -10.3152      2.00015
      2       0.1694      0.00000
      3       0.1940      0.00000
      4       0.3733      0.00000
      5       0.4920      0.00000
      6       0.4966      0.00000
      7       0.5436      0.00000
      8       0.7599      0.00000

 k-point     8 :       0.0000    0.5000    0.0000
  band No.  band energies     occupation 
      1     -10.3151      1.99981
      2       0.2007      0.00000
      3       0.2499      0.00000
      4       0.2693      0.00000
      5       0.4659      0.00000
      6       0.4738      0.00000
      7       0.5123      0.00000
      8       0.8144      0.00000

 k-point     9 :       0.2500    0.5000    0.0000
  band No.  band energies     occupation 
      1     -10.3152      2.00015
      2       0.1694      0.00000
      3       0.1940      0.00000
      4       0.3733      0.00000
      5       0.4919      0.00000
      6       0.4944      0.00000
      7       0.5454      0.00000
      8       0.7591      0.00000

 k-point    10 :       0.5000    0.5000    0.0000
  band No.  band energies     occupation 
      1     -10.3151      1.99981
      2       0.1972      0.00000
      3       0.2533      0.00000
      4       0.2699      0.00000
      5       0.4652      0.00000
      6       0.4743      0.00000
      7       0.5120      0.00000
      8       0.8115      0.00000


--------------------------------------------------------------------------------------------------------


 soft charge-density along one line, spin component           1
         0         1         2         3         4         5         6         7         8         9
 total charge-density along one line
 
 pseudopotential strength for first ion, spin component:           1
 -2.344  -4.039   0.000   0.002   0.000
 -4.039  -6.874   0.000   0.005   0.000
  0.000   0.000  -0.341   0.000  -0.000
  0.002   0.005   0.000  -0.335   0.000
  0.000   0.000  -0.000   0.000  -0.341
 total augmentation occupancy for first ion, spin component:           1
  3.136  -0.500  -0.000  -0.377  -0.008
 -0.500   0.080   0.000   0.060   0.001
 -0.000   0.000   0.000   0.000   0.000
 -0.377   0.060   0.000   0.045   0.001
 -0.008   0.001   0.000   0.001   0.000


------------------------ aborting loop because EDIFF is reached ----------------------------------------


    CHARGE:  cpu time    0.0073: real time    0.0073
    FORLOC:  cpu time    0.0004: real time    0.0004
    FORNL :  cpu time    0.0349: real time    0.0350
    STRESS:  cpu time    0.0129: real time    0.0129
    FORHAR:  cpu time    0.0027: real time    0.0027
    MIXING:  cpu time    0.0006: real time    0.0006
    OFIELD:  cpu time    0.0000: real time    0.0000
 only isotrope contributions calculated
  for stress because ISIF=1 (only pressure is correct)

  FORCE on cell =-STRESS in cart. coord.  units (eV):
  Direction    XX          YY          ZZ          XY          YZ          ZX
  --------------------------------------------------------------------------------------
  Alpha Z     0.00285     0.00285     0.00285
  Ewald       3.27236     3.26471    10.50539    -0.00000    -0.00001     0.38240
  Hartree    14.33473    14.33388     4.71003    -0.00003    -0.00000     0.04438
  E(xc)      -5.96994    -5.97002    -5.74956    -0.00001     0.00000     0.00445
  Local     -27.48033   -27.47508   -17.22933     0.00015     0.00001    -0.26968
  n-local    -5.70611    -5.70611    -5.70611     0.00000     0.00000     0.00000
  augment     0.24810     0.24810     0.24810     0.00000     0.00000     0.00000
  Kinetic    20.84031    20.84294    13.73507     0.00016     0.00000    -0.14244
  Fock        0.00000     0.00000     0.00000     0.00000     0.00000     0.00000
  -------------------------------------------------------------------------------------
  Total      -0.45803    -0.45874     0.51643     0.00027    -0.00000     0.01911
  in kB      -0.21427    -0.21460     0.24159     0.00013    -0.00000     0.00894
  external pressure =       -0.06 kB  Pullay stress =        0.00 kB


 VOLUME and BASIS-vectors are now :
 -----------------------------------------------------------------------------
  energy-cutoff  :      400.00
  volume of cell :     3424.83
      direct lattice vectors                 reciprocal lattice vectors
    11.214359184  0.000000000  0.000000000     0.089171390 -0.051483119  0.000000000
     5.607178664  9.711919634  0.000000000     0.000000000  0.102966256  0.000000000
     0.000000000  0.000000000 31.445607950     0.000000000  0.000000000  0.031800943

  length of vectors
    11.214359184 11.214358455 31.445607950     0.102966249  0.102966256  0.031800943


 FORCES acting on ions
    electron-ion (+dipol)            ewald-force                    non-local-force                 convergence-correction
 -----------------------------------------------------------------------------------------------
   -.409E+00 -.311E-04 -.205E+02   0.509E+00 -.178E-04 0.256E+02   -.103E+00 -.152E-02 -.504E+01   0.345E-03 -.217E-05 0.425E-04
   0.408E+00 -.463E-04 0.205E+02   -.509E+00 0.178E-04 -.256E+02   0.992E-01 -.211E-02 0.504E+01   0.467E-03 -.221E-05 -.472E-05
 -----------------------------------------------------------------------------------------------
   -.448E-03 -.774E-04 -.738E-03   0.000E+00 0.494E-17 0.000E+00   -.354E-02 -.363E-02 -.124E-02   0.812E-03 -.438E-05 0.378E-04
 
 
 POSITION                                       TOTAL-FORCE (eV/Angst)
 -----------------------------------------------------------------------------------
      5.01500      5.00000      5.37546        -0.000428      0.000286     -0.006052
      5.00000      5.00000      4.62454         0.000428     -0.000286      0.006052
 -----------------------------------------------------------------------------------
    total drift:                               -0.003179     -0.003708     -0.001942


--------------------------------------------------------------------------------------------------------



  FREE ENERGIE OF THE ION-ELECTRON SYSTEM (eV)
  ---------------------------------------------------
  free  energy   TOTEN  =        -6.75275078 eV

  energy  without entropy=       -6.75854869  energy(sigma->0) =       -6.75468341
 
 d Force =-0.2426040E-05[-0.641E-05, 0.156E-05]  d Energy =-0.2800954E-04 0.256E-04
 d Force = 0.3821368E-02[ 0.764E-02, 0.417E-05]  d Ewald  = 0.3822514E-02-0.115E-05


--------------------------------------------------------------------------------------------------------


    POTLOK:  cpu time    0.0107: real time    0.0110


--------------------------------------------------------------------------------------------------------


 stress matrix after NEB project (eV)
     -0.45803      0.00027      0.01911
      0.00027     -0.45874     -0.00000
      0.01911     -0.00000      0.51643
  FORCES: max atom, RMS     0.006074    0.006074
  FORCE total and by dimension    0.008590    0.006052
  Stress total and by dimension    0.829256    0.516434
 Finite differences progress:
  Degree of freedom:   1/  6
  Displacement:        1/  2
  Total:               1/ 12
    WAVPRE:  cpu time    0.0015: real time    0.0020
    FEWALD:  cpu time    0.0000: real time    0.0000

 real space projection operators:
  total allocation   :         55.00 KBytes
  max/ min on nodes  :          7.58          6.25

    ORTHCH:  cpu time    0.0144: real time    0.0144
     LOOP+:  cpu time    0.7206: real time    0.7272


--------------------------------------- Iteration      3(   1)  ---------------------------------------


    POTLOK:  cpu time    0.0149: real time    0.0204
    SETDIJ:  cpu time    0.0023: real time    0.0023
     EDDAV:  cpu time    0.1350: real time    0.1353
       DOS:  cpu time    0.0006: real time    0.0006
    CHARGE:  cpu time    0.0075: real time    0.0075
    MIXING:  cpu time    0.0005: real time    0.0005
    --------------------------------------------
      LOOP:  cpu time    0.1607: real time    0.1666

 eigenvalue-minimisations  :   176
 total energy-change (2. order) :-0.7751014E-04  (-0.3173741E-01)
 number of electron       2.0000045 magnetization 
 augmentation part        0.0411061 magnetization 

 Broyden mixing:
  rms(total) = 0.14525E-01    rms(broyden)= 0.14495E-01
  rms(prec ) = 0.14796E-01
  weight for this iteration     100.00

 Free energy of the ion-electron system (eV)
  ---------------------------------------------------
  alpha Z        PSCENC =         0.00284530
  Ewald energy   TEWEN  =        17.04246657
  -Hartree energ DENC   =       -33.37720909
  -exchange      EXHF   =         0.00000000
  -V(xc)+E(xc)   XCENC  =         5.29636731
  PAW double counting   =        24.58484003      -24.63350750
  entropy T*S    EENTRO =         0.00579791
  eigenvalues    EBANDS =       -20.63169285
  atomic energy  EATOM  =        24.95726533
  Solvation  Ediel_sol  =         0.00000000
  ---------------------------------------------------
[...]

 Broyden mixing:
  rms(total) = 0.13269E-02    rms(broyden)= 0.13245E-02
  rms(prec ) = 0.13734E-02
  weight for this iteration     100.00

 eigenvalues of (default mixing * dielectric matrix)
  average eigenvalue GAMMA=   1.5439
  0.9614  2.1264

 Free energy of the ion-electron system (eV)
  ---------------------------------------------------
  alpha Z        PSCENC =         0.00284530
  Ewald energy   TEWEN  =        16.67005963
  -Hartree energ DENC   =       -33.10990270
  -exchange      EXHF   =         0.00000000
  -V(xc)+E(xc)   XCENC  =         5.26074278
  PAW double counting   =        23.64705267      -23.69382606
  entropy T*S    EENTRO =         0.00579791
  eigenvalues    EBANDS =       -20.48907500
  atomic energy  EATOM  =        24.95726533
  Solvation  Ediel_sol  =         0.00000000
  ---------------------------------------------------
  free energy    TOTEN  =        -6.74904015 eV

  energy without entropy =       -6.75483806  energy(sigma->0) =       -6.75097279


--------------------------------------------------------------------------------------------------------




--------------------------------------- Iteration     13(   4)  ---------------------------------------


    POTLOK:  cpu time    0.0095: real time    0.0097
    SETDIJ:  cpu time    0.0009: real time    0.0009
    EDDIAG:  cpu time    0.0366: real time    0.0367
  RMM-DIIS:  cpu time    0.0989: real time    0.0991
    ORTHCH:  cpu time    0.0025: real time    0.0025
       DOS:  cpu time    0.0002: real time    0.0002
    CHARGE:  cpu time    0.0073: real time    0.0073
    MIXING:  cpu time    0.0006: real time    0.0006
    --------------------------------------------
      LOOP:  cpu time    0.1563: real time    0.1569

 eigenvalue-minimisations  :   160
 total energy-change (2. order) :-0.1417955E-04  (-0.1244316E-05)
 number of electron       2.0000032 magnetization 
 augmentation part        0.0403685 magnetization 

 Broyden mixing:
  rms(total) = 0.82454E-03    rms(broyden)= 0.82432E-03
  rms(prec ) = 0.85903E-03
  weight for this iteration     100.00

 eigenvalues of (default mixing * dielectric matrix)
  average eigenvalue GAMMA=   2.0312
  1.0122  2.3748  2.7066

 Free energy of the ion-electron system (eV)
  ---------------------------------------------------
  alpha Z        PSCENC =         0.00284530
  Ewald energy   TEWEN  =        16.67005963
  -Hartree energ DENC   =       -33.11445347
  -exchange      EXHF   =         0.00000000
  -V(xc)+E(xc)   XCENC  =         5.26147195
  PAW double counting   =        23.64512925      -23.69193961
  entropy T*S    EENTRO =         0.00579791
  eigenvalues    EBANDS =       -20.48523062
  atomic energy  EATOM  =        24.95726533
  Solvation  Ediel_sol  =         0.00000000
  ---------------------------------------------------
  free energy    TOTEN  =        -6.74905433 eV

  energy without entropy =       -6.75485224  energy(sigma->0) =       -6.75098697


--------------------------------------------------------------------------------------------------------




--------------------------------------- Iteration     13(   5)  ---------------------------------------


    POTLOK:  cpu time    0.0097: real time    0.0099
    SETDIJ:  cpu time    0.0016: real time    0.0016
    EDDIAG:  cpu time    0.0368: real time    0.0369
  RMM-DIIS:  cpu time    0.0982: real time    0.0985
    ORTHCH:  cpu time    0.0026: real time    0.0026
       DOS:  cpu time    0.0002: real time    0.0002
    CHARGE:  cpu time    0.0073: real time    0.0073
    MIXING:  cpu time    0.0006: real time    0.0006
    --------------------------------------------
      LOOP:  cpu time    0.1569: real time    0.1575

 eigenvalue-minimisations  :   160
 total energy-change (2. order) :-0.2032099E-04  (-0.1050893E-05)
 number of electron       2.0000032 magnetization 
 augmentation part        0.0403657 magnetization 

 Broyden mixing:
  rms(total) = 0.57185E-03    rms(broyden)= 0.57179E-03
  rms(prec ) = 0.59105E-03
  weight for this iteration     100.00

 eigenvalues of (default mixing * dielectric matrix)
  average eigenvalue GAMMA=   1.6331
  2.6256  2.1737  0.9557  0.7772

 Free energy of the ion-electron system (eV)
  ---------------------------------------------------
  alpha Z        PSCENC =         0.00284530
  Ewald energy   TEWEN  =        16.67005963
  -Hartree energ DENC   =       -33.11686911
  -exchange      EXHF   =         0.00000000
  -V(xc)+E(xc)   XCENC  =         5.26206464
  PAW double counting   =        23.58696721      -23.63374933
  entropy T*S    EENTRO =         0.00579791
  eigenvalues    EBANDS =       -20.48345622
  atomic energy  EATOM  =        24.95726533
  Solvation  Ediel_sol  =         0.00000000
  ---------------------------------------------------
  free energy    TOTEN  =        -6.74907465 eV

  energy without entropy =       -6.75487256  energy(sigma->0) =       -6.75100729


--------------------------------------------------------------------------------------------------------




--------------------------------------- Iteration     13(   6)  ---------------------------------------


    POTLOK:  cpu time    0.0098: real time    0.0099
    SETDIJ:  cpu time    0.0009: real time    0.0009
    EDDIAG:  cpu time    0.0366: real time    0.0366
  RMM-DIIS:  cpu time    0.1006: real time    0.1009
    ORTHCH:  cpu time    0.0025: real time    0.0025
       DOS:  cpu time    0.0001: real time    0.0001
    --------------------------------------------
      LOOP:  cpu time    0.1505: real time    0.1510

 eigenvalue-minimisations  :   150
 total energy-change (2. order) :-0.3807690E-06  (-0.6420343E-07)
 number of electron       2.0000032 magnetization 
 augmentation part        0.0403657 magnetization 

 Free energy of the ion-electron system (eV)
  ---------------------------------------------------
  alpha Z        PSCENC =         0.00284530
  Ewald energy   TEWEN  =        16.67005963
  -Hartree energ DENC   =       -33.11363301
  -exchange      EXHF   =         0.00000000
  -V(xc)+E(xc)   XCENC  =         5.26159822
  PAW double counting   =        23.57818600      -23.62494051
  entropy T*S    EENTRO =         0.00579791
  eigenvalues    EBANDS =       -20.48625390
  atomic energy  EATOM  =        24.95726533
  Solvation  Ediel_sol  =         0.00000000
  ---------------------------------------------------
  free energy    TOTEN  =        -6.74907503 eV

  energy without entropy =       -6.75487294  energy(sigma->0) =       -6.75100767


--------------------------------------------------------------------------------------------------------




 average (electrostatic) potential at core
  the test charge radii are     0.5201
  (the norm of the test charge is              1.0001)
       1 -41.5019       2 -41.5098
 
 
 
 E-fermi : -10.1589     XC(G=0):  -0.1231     alpha+bet : -0.0161


 k-point     1 :       0.0000    0.0000    0.0000
  band No.  band energies     occupation 
      1     -10.2433      2.00068
      2      -0.0813      0.00000
      3       0.0100      0.00000
      4       0.0817      0.00000
      5       0.2948      0.00000
      6       0.5527      0.00000
      7       0.8139      0.00000
      8       0.9957      0.00000

 k-point     2 :       0.2500   -0.0000    0.0000
  band No.  band energies     occupation 
      1     -10.2431      1.99983
      2       0.0104      0.00000
      3       0.0783      0.00000
      4       0.1773      0.00000
      5       0.3571      0.00000
      6       0.6448      0.00000
      7       0.6967      0.00000
      8       0.8440      0.00000

 k-point     3 :       0.5000   -0.0000    0.0000
  band No.  band energies     occupation 
      1     -10.2431      1.99981
      2       0.1688      0.00000
      3       0.2691      0.00000
      4       0.2937      0.00000
      5       0.4645      0.00000
      6       0.4654      0.00000
      7       0.5234      0.00000
      8       0.6119      0.00000

 k-point     4 :       0.0000    0.2500    0.0000
  band No.  band energies     occupation 
      1     -10.2431      1.99983
      2       0.0104      0.00000
      3       0.0783      0.00000
      4       0.1773      0.00000
      5       0.3571      0.00000
      6       0.6449      0.00000
      7       0.6968      0.00000
      8       0.8439      0.00000

 k-point     5 :       0.2500    0.2500    0.0000
  band No.  band energies     occupation 
      1     -10.2431      1.99983
      2       0.0104      0.00000
      3       0.0783      0.00000
      4       0.1773      0.00000
      5       0.3571      0.00000
      6       0.6442      0.00000
      7       0.6965      0.00000
      8       0.8439      0.00000

 k-point     6 :       0.5000    0.2500    0.0000
  band No.  band energies     occupation 
      1     -10.2432      2.00015
      2       0.1630      0.00000
      3       0.1927      0.00000
      4       0.3690      0.00000
      5       0.4881      0.00000
      6       0.5136      0.00000
      7       0.5707      0.00000
      8       0.7548      0.00000

 k-point     7 :      -0.2500    0.2500    0.0000
  band No.  band energies     occupation 
      1     -10.2432      2.00015
      2       0.1630      0.00000
      3       0.1926      0.00000
      4       0.3689      0.00000
      5       0.4881      0.00000
      6       0.5163      0.00000
      7       0.5684      0.00000
      8       0.7519      0.00000

 k-point     8 :       0.0000    0.5000    0.0000
  band No.  band energies     occupation 
      1     -10.2431      1.99981
      2       0.1688      0.00000
      3       0.2691      0.00000
      4       0.2938      0.00000
      5       0.4645      0.00000
      6       0.4654      0.00000
      7       0.5233      0.00000
      8       0.6119      0.00000

 k-point     9 :       0.2500    0.5000    0.0000
  band No.  band energies     occupation 
      1     -10.2432      2.00015
      2       0.1630      0.00000
      3       0.1927      0.00000
      4       0.3690      0.00000
      5       0.4881      0.00000
      6       0.5136      0.00000
      7       0.5707      0.00000
      8       0.7524      0.00000

 k-point    10 :       0.5000    0.5000    0.0000
  band No.  band energies     occupation 
      1     -10.2431      1.99980
      2       0.1688      0.00000
      3       0.2709      0.00000
      4       0.2914      0.00000
      5       0.4638      0.00000
      6       0.4659      0.00000
      7       0.5233      0.00000
      8       0.6120      0.00000


--------------------------------------------------------------------------------------------------------


 soft charge-density along one line, spin component           1
         0         1         2         3         4         5         6         7         8         9
 total charge-density along one line
 
 pseudopotential strength for first ion, spin component:           1
 -2.343  -4.037   0.000   0.002   0.000
 -4.037  -6.871   0.000   0.005   0.000
  0.000   0.000  -0.342   0.000  -0.000
  0.002   0.005   0.000  -0.336   0.000
  0.000   0.000  -0.000   0.000  -0.342
 total augmentation occupancy for first ion, spin component:           1
  3.102  -0.499  -0.000  -0.360   0.000
 -0.499   0.080   0.000   0.058  -0.000
 -0.000   0.000   0.000   0.000  -0.000
 -0.360   0.058   0.000   0.042  -0.000
  0.000  -0.000  -0.000  -0.000   0.000


------------------------ aborting loop because EDIFF is reached ----------------------------------------


    CHARGE:  cpu time    0.0072: real time    0.0072
    FORLOC:  cpu time    0.0003: real time    0.0003
    FORNL :  cpu time    0.0353: real time    0.0354
    STRESS:  cpu time    0.0130: real time    0.0130
    FORHAR:  cpu time    0.0029: real time    0.0029
    MIXING:  cpu time    0.0007: real time    0.0007
    OFIELD:  cpu time    0.0000: real time    0.0000
 only isotrope contributions calculated
  for stress because ISIF=1 (only pressure is correct)

  FORCE on cell =-STRESS in cart. coord.  units (eV):
  Direction    XX          YY          ZZ          XY          YZ          ZX
  --------------------------------------------------------------------------------------
  Alpha Z     0.00285     0.00285     0.00285
  Ewald       3.26340     3.26340    10.14327     0.00000    -0.00001     0.00020
  Hartree    14.22913    14.22916     4.65079    -0.00003    -0.00001     0.00002
  E(xc)      -5.93049    -5.93048    -5.70860    -0.00001    -0.00000     0.00000
  Local     -27.28953   -27.28965   -17.11431     0.00014     0.00002    -0.00014
  n-local    -5.60193    -5.60193    -5.60193     0.00000     0.00000     0.00000
  augment     0.24417     0.24417     0.24417     0.00000     0.00000     0.00000
  Kinetic    20.64249    20.64230    13.49578     0.00015     0.00002    -0.00008
  Fock        0.00000     0.00000     0.00000     0.00000     0.00000     0.00000
  -------------------------------------------------------------------------------------
  Total      -0.43992    -0.44019     0.11202     0.00025     0.00002     0.00000
  in kB      -0.20580    -0.20593     0.05240     0.00012     0.00001     0.00000
  external pressure =       -0.12 kB  Pullay stress =        0.00 kB


 VOLUME and BASIS-vectors are now :
 -----------------------------------------------------------------------------
  energy-cutoff  :      400.00
  volume of cell :     3424.83
      direct lattice vectors                 reciprocal lattice vectors
    11.214359184  0.000000000  0.000000000     0.089171390 -0.051483119  0.000000000
     5.607178664  9.711919634  0.000000000     0.000000000  0.102966256  0.000000000
     0.000000000  0.000000000 31.445607950     0.000000000  0.000000000  0.031800943

  length of vectors
    11.214359184 11.214358455 31.445607950     0.102966249  0.102966256  0.031800943


 FORCES acting on ions
    electron-ion (+dipol)            ewald-force                    non-local-force                 convergence-correction
 -----------------------------------------------------------------------------------------------
   -.213E-03 -.397E-04 -.202E+02   0.262E-03 -.168E-04 0.246E+02   -.152E-02 -.214E-02 -.484E+01   -.104E-06 0.458E-05 0.343E-03
   0.216E-03 -.473E-04 0.202E+02   -.262E-03 0.168E-04 -.246E+02   -.171E-02 -.146E-02 0.484E+01   0.164E-06 0.846E-05 0.132E-02
 -----------------------------------------------------------------------------------------------
   0.301E-05 -.870E-04 -.337E-02   -.141E-17 0.495E-17 0.000E+00   -.323E-02 -.361E-02 -.185E-02   0.606E-07 0.130E-04 0.166E-02
 
 
 POSITION                                       TOTAL-FORCE (eV/Angst)
 -----------------------------------------------------------------------------------
      5.00000      5.00000      5.37546         0.000141     -0.000356     -0.485964
      5.00000      5.00000      4.60954        -0.000141      0.000356      0.485964
 -----------------------------------------------------------------------------------
    total drift:                               -0.003225     -0.003679     -0.003568


--------------------------------------------------------------------------------------------------------



  FREE ENERGIE OF THE ION-ELECTRON SYSTEM (eV)
  ---------------------------------------------------
  free  energy   TOTEN  =        -6.74907503 eV

  energy  without entropy=       -6.75487294  energy(sigma->0) =       -6.75100767
 
 d Force = 0.7608347E-03[-0.146E-01, 0.161E-01]  d Energy = 0.2553982E-03 0.505E-03
 d Force = 0.7683501E+00[ 0.738E+00, 0.799E+00]  d Ewald  = 0.7677382E+00 0.612E-03


--------------------------------------------------------------------------------------------------------


    POTLOK:  cpu time    0.0121: real time    0.0121


--------------------------------------------------------------------------------------------------------


 stress matrix after NEB project (eV)
     -0.43992      0.00025      0.00000
      0.00025     -0.44019      0.00002
      0.00000      0.00002      0.11202
  FORCES: max atom, RMS     0.485964    0.485964
  FORCE total and by dimension    0.687257    0.485964
  Stress total and by dimension    0.632330    0.440190
 Finite differences progress:
  Degree of freedom:   6/  6
  Displacement:        2/  2
  Total:              12/ 12
 
 SECOND DERIVATIVES (NOT SYMMETRIZED)
 ------------------------------------
               1X          1Y          1Z          2X          2Y          2Z 
  1X    -0.060054    0.019924   -0.008427    0.060054   -0.019924    0.008427
  1Y     0.015221   -0.045751   -0.009068   -0.015221    0.045751    0.009068
  1Z    -0.014251   -0.021613  -34.142982    0.014251    0.021613   34.142982
  2X     0.049305   -0.019319   -0.024535   -0.049305    0.019319    0.024535
  2Y    -0.005679    0.057593    0.022529    0.005679   -0.057593   -0.022529
  2Z    -0.002389    0.024395   34.088322    0.002389   -0.024395  -34.088322
 
 
 Eigenvectors and eigenvalues of the dynamical matrix
 ----------------------------------------------------
 
 
   1 f  =  129.134615 THz   811.376714 2PiTHz 4307.466959 cm-1   534.058030 meV
             X         Y         Z           dx          dy          dz
      5.000004  5.000000  5.375463     0.000149    0.000333    0.707390  
      4.999996  5.000000  4.624537     0.000193   -0.000473   -0.706823  
 
   2 f  =    5.787762 THz    36.365578 2PiTHz  193.058939 cm-1    23.936266 meV
             X         Y         Z           dx          dy          dz
      5.000004  5.000000  5.375463    -0.547577    0.468747   -0.037017  
      4.999996  5.000000  4.624537     0.504193   -0.472783   -0.036487  
 
   3 f  =    4.345761 THz    27.305222 2PiTHz  144.958980 cm-1    17.972629 meV
             X         Y         Z           dx          dy          dz
      5.000004  5.000000  5.375463     0.496327    0.455907    0.040303  
      4.999996  5.000000  4.624537    -0.435740   -0.593835    0.040932  
 
   4 f/i=    0.000611 THz     0.003836 2PiTHz    0.020365 cm-1     0.002525 meV
             X         Y         Z           dx          dy          dz
      5.000004  5.000000  5.375463    -0.605960   -0.053877    0.360411  
      4.999996  5.000000  4.624537    -0.605980   -0.053868    0.360418  
 
   5 f/i=    0.270732 THz     1.701059 2PiTHz    9.030644 cm-1     1.119658 meV
             X         Y         Z           dx          dy          dz
      5.000004  5.000000  5.375463     0.191019    0.569157    0.415487  
      4.999996  5.000000  4.624537     0.208332    0.500609    0.415851  
 
   6 f/i=    0.578704 THz     3.636102 2PiTHz   19.303473 cm-1     2.393326 meV
             X         Y         Z           dx          dy          dz
      5.000004  5.000000  5.375463     0.223928   -0.495563    0.440545  
      4.999996  5.000000  4.624537     0.381191   -0.412705    0.441091  
 
 Finite differences POTIM=  1.500000000000000E-002
     LOOP+:  cpu time    0.9958: real time    1.0039
    4ORBIT:  cpu time    0.0000: real time    0.0000

 total amount of memory used by VASP MPI-rank0    38437. kBytes
=======================================================================

   base      :      30000. kBytes
   nonlr-proj:         32. kBytes
   fftplans  :       3025. kBytes
   grid      :       4138. kBytes
   one-center:          1. kBytes
   wavefun   :       1241. kBytes
 
  
  
 General timing and accounting informations for this job:
 ========================================================
  
                  Total CPU time used (sec):       12.605
                            User time (sec):       12.275
                          System time (sec):        0.330
                         Elapsed time (sec):       13.200
  
                   Maximum memory used (kb):      210592.
                   Average memory used (kb):           0.
  
                          Minor page faults:        54274
                          Major page faults:            0
                 Voluntary context switches:         1218
