<?xml version="1.0" encoding="ISO-8859-1"?>
<modeling>
 <generator>
  <i name="program" type="string">vasp </i>
  <i name="version" type="string">5.4.4.18Apr17-6-g9f103f2a35  </i>
  <i name="subversion" type="string">(build May 23 2022 10:35:18) complex            parallel </i>
  <i name="platform" type="string">IFC18_impi </i>
  <i name="date" type="string">2023 06 20 </i>
  <i name="time" type="string">00:48:15 </i>
 </generator>
 <incar>
  <i type="string" name="SYSTEM"> Pt-vib</i>
  <i type="int" name="ISTART">     0</i>
  <i type="string" name="PREC">med   normal | accurate</i>
  <i type="string" name="ALGO">  Fast    Normal, Fast, Very_Fast</i>
  <i type="int" name="ICHARG">     2</i>
  <i type="int" name="INIWAV">     1</i>
  <i type="int" name="NELM">   100</i>
  <i type="int" name="IBRION">     5</i>
  <i type="int" name="NFREE">     2</i>
  <i name="EDIFF">      0.00001000</i>
  <i type="int" name="NSW">     1</i>
  <i type="int" name="ISIF">     1</i>
  <i type="int" name="ISYM">     0</i>
  <i name="ENCUT">    400.00000000</i>
  <i name="POTIM">      0.01500000</i>
  <i type="string" name="LREAL">  Auto     real-space projection (.FALSE</i>
  <i type="int" name="ISMEAR">     1</i>
  <i name="SIGMA">      0.10000000</i>
  <i type="int" name="NWRITE">     2</i>
  <i type="logical" name="LWAVE"> F  </i>
  <i type="logical" name="LCHARG"> F  </i>
  <i type="logical" name="LAECHG"> F  </i>
  <v type="int" name="KPOINT_BSE">    -1     0     0     0</v>
  <i type="int" name="NELM">   100</i>
 </incar>
 <structure name="primitive_cell" >
  <crystal>
   <varray name="basis" >
    <v>      11.21435918       0.00000000       0.00000000 </v>
    <v>       5.60717866       9.71191963       0.00000000 </v>
    <v>       0.00000000       0.00000000      31.44560795 </v>
   </varray>
   <i name="volume">   3424.83408825 </i>
   <varray name="rec_basis" >
    <v>       0.08917139      -0.05148312       0.00000000 </v>
    <v>       0.00000000       0.10296626       0.00000000 </v>
    <v>       0.00000000       0.00000000       0.03180094 </v>
   </varray>
  </crystal>
  <varray name="positions" >
   <v>       0.18844173      -0.48516875       0.17094480 </v>
   <v>       0.18844098      -0.48516869       0.14706463 </v>
  </varray>
 </structure>
 <varray name="primitive_index" >
  <v type="int" >        1 </v>
  <v type="int" >        2 </v>
 </varray>
 <kpoints>
  <generation param="Gamma">
   <v type="int" name="divisions">       4        4        1 </v>
   <v name="usershift">      0.00000000       0.00000000       0.00000000 </v>
   <v name="genvec1">      0.25000000      -0.00000000       0.00000000 </v>
   <v name="genvec2">      0.00000000       0.25000000       0.00000000 </v>
   <v name="genvec3">      0.00000000       0.00000000       1.00000000 </v>
   <v name="shift">      0.00000000       0.00000000       0.00000000 </v>
  </generation>
  <varray name="kpointlist" >
   <v>       0.00000000       0.00000000       0.00000000 </v>
   <v>       0.25000000      -0.00000000       0.00000000 </v>
   <v>       0.50000000      -0.00000000       0.00000000 </v>
   <v>       0.00000000       0.25000000       0.00000000 </v>
   <v>       0.25000000       0.25000000       0.00000000 </v>
   <v>       0.50000000       0.25000000       0.00000000 </v>
   <v>      -0.25000000       0.25000000       0.00000000 </v>
   <v>       0.00000000       0.50000000       0.00000000 </v>
   <v>       0.25000000       0.50000000       0.00000000 </v>
   <v>       0.50000000       0.50000000       0.00000000 </v>
  </varray>
  <varray name="weights" >
   <v>       0.06250000 </v>
   <v>       0.12500000 </v>
   <v>       0.06250000 </v>
   <v>       0.12500000 </v>
   <v>       0.12500000 </v>
   <v>       0.12500000 </v>
   <v>       0.12500000 </v>
   <v>       0.06250000 </v>
   <v>       0.12500000 </v>
   <v>       0.06250000 </v>
  </varray>
 </kpoints>
 <parameters>
  <separator name="general" >
   <i type="string" name="SYSTEM">Pt-vib</i>
   <i type="logical" name="LCOMPAT"> F  </i>
  </separator>
  <separator name="electronic" >
   <i type="string" name="PREC">med</i>
   <i name="ENMAX">    400.00000000</i>
   <i name="ENAUG">    400.00000000</i>
   <i name="EDIFF">      0.00001000</i>
   <i type="int" name="IALGO">    68</i>
   <i type="int" name="IWAVPR">    11</i>
   <i type="int" name="NBANDS">     8</i>
   <i name="NELECT">      2.00000000</i>
   <i type="int" name="TURBO">     0</i>
   <i type="int" name="IRESTART">     0</i>
   <i type="int" name="NREBOOT">     0</i>
   <i type="int" name="NMIN">     0</i>
   <i name="EREF">      0.00000000</i>
   <separator name="electronic smearing" >
    <i type="int" name="ISMEAR">     1</i>
    <i name="SIGMA">      0.10000000</i>
    <i name="KSPACING">      0.50000000</i>
    <i type="logical" name="KGAMMA"> T  </i>
   </separator>
   <separator name="electronic projectors" >
    <i type="logical" name="LREAL"> T  </i>
    <v name="ROPT">     -0.00200000</v>
    <i type="int" name="LMAXPAW">  -100</i>
    <i type="int" name="LMAXMIX">     2</i>
    <i type="logical" name="NLSPLINE"> F  </i>
   </separator>
   <separator name="electronic startup" >
    <i type="int" name="ISTART">     0</i>
    <i type="int" name="ICHARG">     2</i>
    <i type="int" name="INIWAV">     1</i>
   </separator>
   <separator name="electronic spin" >
    <i type="int" name="ISPIN">     1</i>
    <i type="logical" name="LNONCOLLINEAR"> F  </i>
    <v name="MAGMOM">      1.00000000      1.00000000</v>
    <i name="NUPDOWN">     -1.00000000</i>
    <i type="logical" name="LSORBIT"> F  </i>
    <v name="SAXIS">      0.00000000      0.00000000      1.00000000</v>
    <i type="logical" name="LSPIRAL"> F  </i>
    <v name="QSPIRAL">      0.00000000      0.00000000      0.00000000</v>
    <i type="logical" name="LZEROZ"> F  </i>
   </separator>
   <separator name="electronic exchange-correlation" >
    <i type="logical" name="LASPH"> F  </i>
    <i type="logical" name="LMETAGGA"> F  </i>
   </separator>
   <separator name="electronic convergence" >
    <i type="int" name="NELM">   100</i>
    <i type="int" name="NELMDL">    -5</i>
    <i type="int" name="NELMIN">     2</i>
    <i name="ENINI">    400.00000000</i>
    <separator name="electronic convergence detail" >
     <i type="logical" name="LDIAG"> T  </i>
     <i type="logical" name="LSUBROT"> F  </i>
     <i name="WEIMIN">      0.00100000</i>
     <i name="EBREAK">      0.00000031</i>
     <i name="DEPER">      0.30000000</i>
     <i type="int" name="NRMM">     4</i>
     <i name="TIME">      0.40000000</i>
    </separator>
   </separator>
   <separator name="electronic mixer" >
    <i name="AMIX">      0.40000000</i>
    <i name="BMIX">      1.00000000</i>
    <i name="AMIN">      0.10000000</i>
    <i name="AMIX_MAG">      1.60000000</i>
    <i name="BMIX_MAG">      1.00000000</i>
    <separator name="electronic mixer details" >
     <i type="int" name="IMIX">     4</i>
     <i type="logical" name="MIXFIRST"> F  </i>
     <i type="int" name="MAXMIX">   -45</i>
     <i name="WC">    100.00000000</i>
     <i type="int" name="INIMIX">     1</i>
     <i type="int" name="MIXPRE">     1</i>
     <i type="int" name="MREMOVE">     5</i>
    </separator>
   </separator>
   <separator name="electronic dipolcorrection" >
    <i type="logical" name="LDIPOL"> F  </i>
    <i type="logical" name="LMONO"> F  </i>
    <i type="int" name="IDIPOL">     0</i>
    <i name="EPSILON">      1.00000000</i>
    <v name="DIPOL">   -100.00000000   -100.00000000   -100.00000000</v>
    <i name="EFIELD">      0.00000000</i>
   </separator>
  </separator>
  <separator name="grids" >
   <i type="int" name="NGX">    56</i>
   <i type="int" name="NGY">    56</i>
   <i type="int" name="NGZ">   160</i>
   <i type="int" name="NGXF">    80</i>
   <i type="int" name="NGYF">    80</i>
   <i type="int" name="NGZF">   210</i>
   <i type="logical" name="ADDGRID"> F  </i>
  </separator>
  <separator name="ionic" >
   <i type="int" name="NSW">    61</i>
   <i type="int" name="IBRION">     5</i>
   <i type="int" name="MDALGO">     0</i>
   <i type="int" name="ISIF">     1</i>
   <i name="PSTRESS">      0.00000000</i>
   <i name="EDIFFG">      0.00010000</i>
   <i type="int" name="NFREE">     2</i>
   <i name="POTIM">      0.01500000</i>
   <i name="SMASS">     -3.00000000</i>
   <i name="SCALEE">      1.00000000</i>
  </separator>
  <separator name="ionic md" >
   <i name="TEBEG">      0.00010000</i>
   <i name="TEEND">      0.00010000</i>
   <i type="int" name="NBLOCK">     1</i>
   <i type="int" name="KBLOCK">    61</i>
   <i type="int" name="NPACO">   256</i>
   <i name="APACO">     16.00000000</i>
  </separator>
  <separator name="symmetry" >
   <i type="int" name="ISYM">     0</i>
   <i name="SYMPREC">      0.00001000</i>
  </separator>
  <separator name="dos" >
   <i type="int" name="LORBIT">     0</i>
   <v name="RWIGS">     -1.00000000</v>
   <i type="int" name="NEDOS">   301</i>
   <i name="EMIN">     10.00000000</i>
   <i name="EMAX">    -10.00000000</i>
   <i name="EFERMI">      0.00000000</i>
  </separator>
  <separator name="writing" >
   <i type="int" name="NWRITE">     2</i>
   <i type="logical" name="LWAVE"> F  </i>
   <i type="logical" name="LDOWNSAMPLE"> F  </i>
   <i type="logical" name="LCHARG"> F  </i>
   <i type="logical" name="LPARD"> F  </i>
   <i type="logical" name="LVTOT"> F  </i>
   <i type="logical" name="LVHAR"> F  </i>
   <i type="logical" name="LELF"> F  </i>
   <i type="logical" name="LOPTICS"> F  </i>
   <v name="STM">      0.00000000      0.00000000      0.00000000      0.00000000      0.00000000      0.00000000      0.00000000</v>
  </separator>
  <separator name="performance" >
   <i type="int" name="NPAR">     8</i>
   <i type="int" name="NSIM">     4</i>
   <i type="int" name="NBLK">    -1</i>
   <i type="logical" name="LPLANE"> T  </i>
   <i type="logical" name="LSCALAPACK"> T  </i>
   <i type="logical" name="LSCAAWARE"> F  </i>
   <i type="logical" name="LSCALU"> F  </i>
   <i type="logical" name="LASYNC"> F  </i>
   <i type="logical" name="LORBITALREAL"> F  </i>
  </separator>
  <separator name="miscellaneous" >
   <i type="int" name="IDIOT">     3</i>
   <i type="int" name="ISPECIAL">     0</i>
   <i type="logical" name="LMUSIC"> F  </i>
   <v name="POMASS">      1.00000000</v>
   <v name="DARWINR">      0.00000000</v>
   <v name="DARWINV">      1.00000000</v>
   <i type="logical" name="LCORR"> T  </i>
  </separator>
  <i type="logical" name="GGA_COMPAT"> T  </i>
  <i type="logical" name="LBERRY"> F  </i>
  <i type="int" name="ICORELEVEL">     0</i>
  <i type="logical" name="LDAU"> F  </i>
  <i type="int" name="I_CONSTRAINED_M">     0</i>
  <separator name="electronic exchange-correlation" >
   <i type="string" name="GGA">--</i>
   <i type="int" name="VOSKOWN">     0</i>
   <i type="logical" name="LHFCALC"> F  </i>
   <i type="string" name="PRECFOCK"></i>
   <i type="logical" name="LSYMGRAD"> F  </i>
   <i type="logical" name="LHFONE"> F  </i>
   <i type="logical" name="LRHFCALC"> F  </i>
   <i type="logical" name="LTHOMAS"> F  </i>
   <i type="logical" name="LMODELHF"> F  </i>
   <i name="ENCUT4O">     -1.00000000</i>
   <i type="int" name="EXXOEP">     0</i>
   <i type="int" name="FOURORBIT">     0</i>
   <i name="AEXX">      0.00000000</i>
   <i name="HFALPHA">      0.00000000</i>
   <i name="MCALPHA">      0.00000000</i>
   <i name="ALDAX">      1.00000000</i>
   <i name="AGGAX">      1.00000000</i>
   <i name="ALDAC">      1.00000000</i>
   <i name="AGGAC">      1.00000000</i>
   <i type="int" name="NKREDX">     1</i>
   <i type="int" name="NKREDY">     1</i>
   <i type="int" name="NKREDZ">     1</i>
   <i type="logical" name="SHIFTRED"> F  </i>
   <i type="logical" name="ODDONLY"> F  </i>
   <i type="logical" name="EVENONLY"> F  </i>
   <i type="int" name="LMAXFOCK">     0</i>
   <i type="int" name="NMAXFOCKAE">     0</i>
   <i type="logical" name="LFOCKAEDFT"> F  </i>
   <i name="HFSCREEN">      0.00000000</i>
   <i name="HFSCREENC">      0.00000000</i>
   <i type="int" name="NBANDSGWLOW">     0</i>
  </separator>
  <separator name="vdW DFT" >
   <i type="logical" name="LUSE_VDW"> F  </i>
   <i name="Zab_VDW">     -0.84910000</i>
   <i name="PARAM1">      0.12340000</i>
   <i name="PARAM2">      1.00000000</i>
   <i name="PARAM3">      0.00000000</i>
  </separator>
  <separator name="model GW" >
   <i type="int" name="MODEL_GW">     0</i>
   <i name="MODEL_EPS0">   1027.45022648</i>
   <i name="MODEL_ALPHA">      1.00000000</i>
  </separator>
  <separator name="linear response parameters" >
   <i type="logical" name="LEPSILON"> F  </i>
   <i type="logical" name="LRPA"> F  </i>
   <i type="logical" name="LNABLA"> F  </i>
   <i type="logical" name="LVEL"> F  </i>
   <i type="int" name="KINTER">     0</i>
   <i name="CSHIFT">      0.10000000</i>
   <i name="OMEGAMAX">     -1.00000000</i>
   <i name="DEG_THRESHOLD">      0.00200000</i>
   <i name="RTIME">     -0.10000000</i>
   <i name="WPLASMAI">      0.00000000</i>
   <v name="DFIELD">      0.00000000      0.00000000      0.00000000</v>
   <v name="WPLASMA">      0.00000000      0.00000000      0.00000000      0.00000000      0.00000000      0.00000000      0.00000000      0.00000000      0.00000000</v>
  </separator>
  <separator name="orbital magnetization" >
   <i type="logical" name="NUCIND"> F  </i>
   <v name="MAGPOS">      0.00000000      0.00000000      0.00000000</v>
   <i type="logical" name="LNICSALL"> T  </i>
   <i type="logical" name="ORBITALMAG"> F  </i>
   <i type="logical" name="LMAGBLOCH"> F  </i>
   <i type="logical" name="LCHIMAG"> F  </i>
   <i type="logical" name="LGAUGE"> T  </i>
   <i type="int" name="MAGATOM">     0</i>
   <v name="MAGDIPOL">      0.00000000      0.00000000      0.00000000</v>
   <v name="AVECCONST">      0.00000000      0.00000000      0.00000000</v>
  </separator>
  <separator name="response functions" >
   <i type="logical" name="LADDER"> F  </i>
   <i type="logical" name="LRPAFORCE"> F  </i>
   <i type="logical" name="LFXC"> F  </i>
   <i type="logical" name="LHARTREE"> T  </i>
   <i type="int" name="IBSE">     0</i>
   <v type="int" name="KPOINT">    -1     0     0     0</v>
   <i type="logical" name="LTCTE"> F  </i>
   <i type="logical" name="LTETE"> F  </i>
   <i type="logical" name="LTRIPLET"> F  </i>
   <i type="logical" name="LFXCEPS"> F  </i>
   <i type="logical" name="LFXHEG"> F  </i>
   <i type="int" name="NATURALO">     2</i>
   <i type="logical" name="L2ORDER"> F  </i>
   <i type="logical" name="LMP2LT"> F  </i>
   <i type="logical" name="LUSEW"> F  </i>
   <i name="ENCUTGW">     -2.00000000</i>
   <i name="ENCUTGWSOFT">     -2.00000000</i>
   <i name="ENCUTLF">     -1.00000000</i>
   <i type="int" name="LMAXMP2">    -1</i>
   <i name="SCISSOR">      0.00000000</i>
   <i type="int" name="NOMEGA">     0</i>
   <i type="int" name="NOMEGAR">     0</i>
   <i type="int" name="NBANDSGW">    -1</i>
   <i type="int" name="NBANDSO">    -1</i>
   <i type="int" name="NBANDSV">    -1</i>
   <i type="int" name="NELM">   100</i>
   <i type="int" name="NELMHF">     1</i>
   <i type="int" name="DIM">     3</i>
   <i type="int" name="ANTIRES">     0</i>
   <i name="OMEGAMAX">    -30.00000000</i>
   <i name="OMEGAMIN">    -30.00000000</i>
   <i name="OMEGATL">   -200.00000000</i>
   <i type="int" name="OMEGAGRID">   140</i>
   <i name="CSHIFT">     -0.10000000</i>
   <i type="logical" name="SELFENERGY"> F  </i>
   <i type="logical" name="LSPECTRAL"> F  </i>
   <i type="logical" name="LSPECTRALGW"> F  </i>
   <i type="logical" name="LSINGLES"> F  </i>
   <i type="logical" name="LFERMIGW"> F  </i>
   <i type="logical" name="ODDONLYGW"> F  </i>
   <i type="logical" name="EVENONLYGW"> F  </i>
   <i type="int" name="NKREDLFX">     1</i>
   <i type="int" name="NKREDLFY">     1</i>
   <i type="int" name="NKREDLFZ">     1</i>
   <i type="int" name="MAXMEM">  2800</i>
   <i type="int" name="TELESCOPE">     0</i>
   <i type="int" name="TAUPAR">     1</i>
   <i type="int" name="OMEGAPAR">    -1</i>
   <i name="LAMBDA">      1.00000000</i>
  </separator>
  <separator name="External order field" >
   <i name="OFIELD_KAPPA">      0.00000000</i>
   <v name="OFIELD_K">      0.00000000      0.00000000      0.00000000</v>
   <i name="OFIELD_Q6_NEAR">      0.00000000</i>
   <i name="OFIELD_Q6_FAR">      0.00000000</i>
   <i name="OFIELD_A">      0.00000000</i>
  </separator>
 </parameters>
 <atominfo>
  <atoms>       2 </atoms>
  <types>       1 </types>
  <array name="atoms" >
   <dimension dim="1">ion</dimension>
   <field type="string">element</field>
   <field type="int">atomtype</field>
   <set>
    <rc><c>H </c><c>   1</c></rc>
    <rc><c>H </c><c>   1</c></rc>
   </set>
  </array>
  <array name="atomtypes" >
   <dimension dim="1">type</dimension>
   <field type="int">atomspertype</field>
   <field type="string">element</field>
   <field>mass</field>
   <field>valence</field>
   <field type="string">pseudopotential</field>
   <set>
    <rc><c>   2</c><c>H </c><c>      1.00000000</c><c>      1.00000000</c><c>  PAW_PBE H 15Jun2001                   </c></rc>
   </set>
  </array>
 </atominfo>
 <structure name="initialpos" >
  <crystal>
   <varray name="basis" >
    <v>      11.21435918       0.00000000       0.00000000 </v>
    <v>       5.60717866       9.71191963       0.00000000 </v>
    <v>       0.00000000       0.00000000      31.44560795 </v>
   </varray>
   <i name="volume">   3424.83408825 </i>
   <varray name="rec_basis" >
    <v>       0.08917139      -0.05148312       0.00000000 </v>
    <v>       0.00000000       0.10296626       0.00000000 </v>
    <v>       0.00000000       0.00000000       0.03180094 </v>
   </varray>
  </crystal>
  <varray name="positions" >
   <v>       0.18844173       0.51483125       0.17094480 </v>
   <v>       0.18844098       0.51483131       0.14706463 </v>
  </varray>
 </structure>
 <calculation>
  <scstep>
   <time name="dav">    0.18    0.18</time>
   <time name="total">    0.19    0.20</time>
   <energy>
    <i name="alphaZ">      0.00284530 </i>
    <i name="ewald">     17.04628075 </i>
    <i name="hartreedc">    -26.55629623 </i>
    <i name="XCdc">      4.34918212 </i>
    <i name="pawpsdc">      4.26805487 </i>
    <i name="pawaedc">     -4.28581044 </i>
    <i name="eentropy">      0.00038183 </i>
    <i name="bandstr">    -21.74536503 </i>
    <i name="atom">     24.95726533 </i>
    <i name="e_fr_energy">     -1.96346150 </i>
    <i name="e_wo_entrp">     -1.96384333 </i>
    <i name="e_0_energy">     -1.96358877 </i>
   </energy>
  </scstep>
  <scstep>
   <time name="dav">    0.13    0.13</time>
   <time name="total">    0.13    0.13</time>
   <energy>
    <i name="e_fr_energy">     -7.32328355 </i>
    <i name="e_wo_entrp">     -7.32941218 </i>
    <i name="e_0_energy">     -7.32532642 </i>
   </energy>
  </scstep>
  <scstep>
   <time name="dav">    0.17    0.17</time>
   <time name="total">    0.17    0.17</time>
   <energy>
    <i name="e_fr_energy">     -7.42972028 </i>
    <i name="e_wo_entrp">     -7.43551820 </i>
    <i name="e_0_energy">     -7.43165292 </i>
   </energy>
  </scstep>
  <scstep>
   <time name="dav">    0.14    0.14</time>
   <time name="total">    0.14    0.14</time>
   <energy>
    <i name="e_fr_energy">     -7.42978138 </i>
    <i name="e_wo_entrp">     -7.43557929 </i>
    <i name="e_0_energy">     -7.43171401 </i>
   </energy>
  </scstep>
  <scstep>
   <time name="dav">    0.19    0.19</time>
   <time name="total">    0.20    0.20</time>
   <energy>
    <i name="e_fr_energy">     -7.42978162 </i>
    <i name="e_wo_entrp">     -7.43557953 </i>
    <i name="e_0_energy">     -7.43171426 </i>
   </energy>
  </scstep>
  <scstep>
   <time name="diag">    0.05    0.05</time>
   <time name="diis">    0.10    0.11</time>
   <time name="orth">    0.00    0.00</time>
   <time name="total">    0.18    0.18</time>
   <energy>
    <i name="e_fr_energy">     -6.98991404 </i>
    <i name="e_wo_entrp">     -6.99571196 </i>
    <i name="e_0_energy">     -6.99184668 </i>
   </energy>
  </scstep>
  <scstep>
   <time name="diag">    0.04    0.04</time>
   <time name="diis">    0.10    0.10</time>
   <time name="orth">    0.00    0.00</time>
   <time name="total">    0.17    0.17</time>
   <energy>
    <i name="e_fr_energy">     -6.74803847 </i>
    <i name="e_wo_entrp">     -6.75383638 </i>
    <i name="e_0_energy">     -6.74997110 </i>
   </energy>
  </scstep>
  <scstep>
   <time name="diag">    0.04    0.04</time>
   <time name="diis">    0.10    0.10</time>
   <time name="orth">    0.00    0.00</time>
   <time name="total">    0.17    0.17</time>
   <energy>
    <i name="e_fr_energy">     -6.75161237 </i>
    <i name="e_wo_entrp">     -6.75741028 </i>
    <i name="e_0_energy">     -6.75354501 </i>
   </energy>
  </scstep>
  <scstep>
   <time name="diag">    0.04    0.04</time>
   <time name="diis">    0.10    0.10</time>
   <time name="orth">    0.00    0.00</time>
   <time name="total">    0.16    0.16</time>
   <energy>
    <i name="e_fr_energy">     -6.74868740 </i>
    <i name="e_wo_entrp">     -6.75448531 </i>
    <i name="e_0_energy">     -6.75062003 </i>
   </energy>
  </scstep>
  <scstep>
   <time name="diag">    0.04    0.04</time>
   <time name="diis">    0.10    0.10</time>
   <time name="orth">    0.00    0.00</time>
   <time name="total">    0.16    0.16</time>
   <energy>
    <i name="e_fr_energy">     -6.74979543 </i>
    <i name="e_wo_entrp">     -6.75559334 </i>
    <i name="e_0_energy">     -6.75172807 </i>
   </energy>
  </scstep>
  <scstep>
   <time name="diag">    0.04    0.04</time>
   <time name="diis">    0.10    0.10</time>
   <time name="orth">    0.00    0.00</time>
   <time name="total">    0.16    0.16</time>
   <energy>
    <i name="e_fr_energy">     -6.75036898 </i>
    <i name="e_wo_entrp">     -6.75616689 </i>
    <i name="e_0_energy">     -6.75230162 </i>
   </energy>
  </scstep>
  <scstep>
   <time name="diag">    0.04    0.04</time>
   <time name="diis">    0.10    0.10</time>
   <time name="orth">    0.00    0.00</time>
   <time name="total">    0.16    0.16</time>
   <energy>
    <i name="e_fr_energy">     -6.75232953 </i>
    <i name="e_wo_entrp">     -6.75812744 </i>
    <i name="e_0_energy">     -6.75426216 </i>
   </energy>
  </scstep>
  <scstep>
   <time name="diag">    0.04    0.04</time>
   <time name="diis">    0.10    0.10</time>
   <time name="orth">    0.00    0.00</time>
   <time name="total">    0.16    0.16</time>
   <energy>
    <i name="e_fr_energy">     -6.75249067 </i>
    <i name="e_wo_entrp">     -6.75828858 </i>
    <i name="e_0_energy">     -6.75442331 </i>
   </energy>
  </scstep>
  <scstep>
   <time name="diag">    0.04    0.04</time>
   <time name="diis">    0.10    0.10</time>
   <time name="orth">    0.00    0.00</time>
   <time name="total">    0.16    0.16</time>
   <energy>
    <i name="e_fr_energy">     -6.75270743 </i>
    <i name="e_wo_entrp">     -6.75850534 </i>
    <i name="e_0_energy">     -6.75464006 </i>
   </energy>
  </scstep>
  <scstep>
   <time name="diag">    0.04    0.04</time>
   <time name="diis">    0.10    0.10</time>
   <time name="orth">    0.00    0.00</time>
   <time name="total">    0.15    0.15</time>
   <energy>
    <i name="e_fr_energy">     -6.75274892 </i>
    <i name="e_wo_entrp">     -6.75854683 </i>
    <i name="e_0_energy">     -6.75468155 </i>
   </energy>
  </scstep>
  <scstep>
   <time name="diag">    0.04    0.04</time>
   <time name="diis">    0.10    0.10</time>
   <time name="orth">    0.00    0.00</time>
   <time name="total">    0.16    0.16</time>
   <energy>
    <i name="e_fr_energy">     -6.75277137 </i>
    <i name="e_wo_entrp">     -6.75856929 </i>
    <i name="e_0_energy">     -6.75470401 </i>
   </energy>
  </scstep>
  <scstep>
   <time name="diag">    0.04    0.04</time>
   <time name="diis">    0.10    0.10</time>
   <time name="orth">    0.00    0.00</time>
   <time name="total">    0.15    0.15</time>
   <energy>
    <i name="alphaZ">      0.00284530 </i>
    <i name="ewald">     17.04628075 </i>
    <i name="hartreedc">    -33.38041471 </i>
    <i name="XCdc">      5.29672355 </i>
    <i name="pawpsdc">     24.59333185 </i>
    <i name="pawaedc">    -24.64201320 </i>
    <i name="eentropy">      0.00579791 </i>
    <i name="bandstr">    -20.63259557 </i>
    <i name="atom">     24.95726533 </i>
    <i name="e_fr_energy">     -6.75277879 </i>
    <i name="e_wo_entrp">     -6.75857670 </i>
    <i name="e_0_energy">     -6.75471142 </i>
   </energy>
  </scstep>
  <structure>
   <crystal>
    <varray name="basis" >
     <v>      11.21435918       0.00000000       0.00000000 </v>
     <v>       5.60717866       9.71191963       0.00000000 </v>
     <v>       0.00000000       0.00000000      31.44560795 </v>
    </varray>
    <i name="volume">   3424.83408825 </i>
    <varray name="rec_basis" >
     <v>       0.08917139      -0.05148312       0.00000000 </v>
     <v>       0.00000000       0.10296626       0.00000000 </v>
     <v>       0.00000000       0.00000000       0.03180094 </v>
    </varray>
   </crystal>
   <varray name="positions" >
    <v>       0.18844173       0.51483125       0.17094480 </v>
    <v>       0.18844098       0.51483131       0.14706463 </v>
   </varray>
  </structure>
  <varray name="forces" >
   <v>       0.00010418      -0.00003890      -0.00079496 </v>
   <v>      -0.00010418       0.00003890       0.00079496 </v>
  </varray>
  <varray name="stress" >
   <v>      -0.21441482       0.00012337       0.00000342 </v>
   <v>       0.00012337      -0.21454779      -0.00000058 </v>
   <v>       0.00000342      -0.00000058       0.24388416 </v>
  </varray>
  <energy>
   <i name="e_fr_energy">     -6.75277879 </i>
   <i name="e_wo_entrp">     -6.75471142 </i>
   <i name="e_0_energy">      0.00579791 </i>
  </energy>
  <time name="totalsc">    2.85    2.88</time>
 </calculation>
 <calculation>
  <scstep>
   <time name="dav">    0.15    0.15</time>
   <time name="total">    0.17    0.17</time>
   <energy>
    <i name="alphaZ">      0.00284530 </i>
    <i name="ewald">     17.04245824 </i>
    <i name="hartreedc">    -33.37980843 </i>
    <i name="XCdc">      5.29666822 </i>
    <i name="pawpsdc">     24.59547942 </i>
    <i name="pawaedc">    -24.64416720 </i>
    <i name="eentropy">      0.00579791 </i>
    <i name="bandstr">    -20.62930429 </i>
    <i name="atom">     24.95726533 </i>
    <i name="e_fr_energy">     -6.75276550 </i>
    <i name="e_wo_entrp">     -6.75856341 </i>
    <i name="e_0_energy">     -6.75469813 </i>
   </energy>
  </scstep>
  <scstep>
   <time name="diag">    0.04    0.04</time>
   <time name="diis">    0.10    0.10</time>
   <time name="orth">    0.00    0.00</time>
   <time name="total">    0.16    0.16</time>
   <energy>
    <i name="e_fr_energy">     -6.75273921 </i>
    <i name="e_wo_entrp">     -6.75853712 </i>
    <i name="e_0_energy">     -6.75467185 </i>
   </energy>
  </scstep>
  <scstep>
   <time name="diag">    0.04    0.04</time>
   <time name="diis">    0.10    0.10</time>
   <time name="orth">    0.00    0.00</time>
   <time name="total">    0.16    0.16</time>
   <energy>
    <i name="e_fr_energy">     -6.75274948 </i>
    <i name="e_wo_entrp">     -6.75854739 </i>
    <i name="e_0_energy">     -6.75468211 </i>
   </energy>
  </scstep>
  <scstep>
   <time name="diag">    0.04    0.04</time>
   <time name="diis">    0.10    0.10</time>
   <time name="orth">    0.00    0.00</time>
   <time name="total">    0.15    0.15</time>
   <energy>
    <i name="alphaZ">      0.00284530 </i>
    <i name="ewald">     17.04245824 </i>
    <i name="hartreedc">    -33.37854913 </i>
    <i name="XCdc">      5.29646488 </i>
    <i name="pawpsdc">     24.58516147 </i>
    <i name="pawaedc">    -24.63382757 </i>
    <i name="eentropy">      0.00579791 </i>
    <i name="bandstr">    -20.63036721 </i>
    <i name="atom">     24.95726533 </i>
    <i name="e_fr_energy">     -6.75275078 </i>
    <i name="e_wo_entrp">     -6.75854869 </i>
    <i name="e_0_energy">     -6.75468341 </i>
   </energy>
  </scstep>
  <structure>
   <crystal>
    <varray name="basis" >
     <v>      11.21435918       0.00000000       0.00000000 </v>
     <v>       5.60717866       9.71191963       0.00000000 </v>
     <v>       0.00000000       0.00000000      31.44560795 </v>
    </varray>
    <i name="volume">   3424.83408825 </i>
    <varray name="rec_basis" >
     <v>       0.08917139      -0.05148312       0.00000000 </v>
     <v>       0.00000000       0.10296626       0.00000000 </v>
     <v>       0.00000000       0.00000000       0.03180094 </v>
    </varray>
   </crystal>
   <varray name="positions" >
    <v>       0.18977930       0.51483125       0.17094480 </v>
    <v>       0.18844098       0.51483131       0.14706463 </v>
   </varray>
  </structure>
  <varray name="forces" >
   <v>      -0.00042765       0.00028593      -0.00605250 </v>
   <v>       0.00042765      -0.00028593       0.00605250 </v>
  </varray>
  <varray name="stress" >
   <v>      -0.21427193       0.00012587       0.00893757 </v>
   <v>       0.00012587      -0.21460195      -0.00000186 </v>
   <v>       0.00893757      -0.00000186       0.24159395 </v>
  </varray>
  <energy>
   <i name="e_fr_energy">     -6.75275078 </i>
   <i name="e_wo_entrp">     -6.75468341 </i>
   <i name="e_0_energy">      0.00579791 </i>
  </energy>
  <time name="totalsc">    0.72    0.73</time>
 </calculation>
 <calculation>
  <scstep>
   <time name="dav">    0.13    0.14</time>
   <time name="total">    0.16    0.17</time>
   <energy>
    <i name="alphaZ">      0.00284530 </i>
    <i name="ewald">     17.04246657 </i>
    <i name="hartreedc">    -33.37720909 </i>
    <i name="XCdc">      5.29636731 </i>
    <i name="pawpsdc">     24.58484003 </i>
    <i name="pawaedc">    -24.63350750 </i>
    <i name="eentropy">      0.00579791 </i>
    <i name="bandstr">    -20.63169285 </i>
    <i name="atom">     24.95726533 </i>
    <i name="e_fr_energy">     -6.75282699 </i>
    <i name="e_wo_entrp">     -6.75862490 </i>
    <i name="e_0_energy">     -6.75475962 </i>
   </energy>
  </scstep>
  <scstep>
   <time name="diag">    0.04    0.04</time>
   <time name="diis">    0.10    0.10</time>
   <time name="orth">    0.00    0.00</time>
   <time name="total">    0.16    0.17</time>
   <energy>
    <i name="e_fr_energy">     -6.75275729 </i>
    <i name="e_wo_entrp">     -6.75855521 </i>
    <i name="e_0_energy">     -6.75468993 </i>
   </energy>
  </scstep>
  <scstep>
   <time name="diag">    0.04    0.04</time>
   <time name="diis">    0.10    0.10</time>
   <time name="orth">    0.00    0.00</time>
   <time name="total">    0.16    0.16</time>
   <energy>
    <i name="e_fr_energy">     -6.75278017 </i>
    <i name="e_wo_entrp">     -6.75857808 </i>
    <i name="e_0_energy">     -6.75471281 </i>
   </energy>
  </scstep>
  <scstep>
   <time name="diag">    0.04    0.04</time>
   <time name="diis">    0.10    0.10</time>
   <time name="orth">    0.00    0.00</time>
   <time name="total">    0.15    0.15</time>
   <energy>
    <i name="alphaZ">      0.00284530 </i>
    <i name="ewald">     17.04246657 </i>
    <i name="hartreedc">    -33.37857917 </i>
    <i name="XCdc">      5.29647186 </i>
    <i name="pawpsdc">     24.58686117 </i>
    <i name="pawaedc">    -24.63552702 </i>
    <i name="eentropy">      0.00579791 </i>
    <i name="bandstr">    -20.63038549 </i>
    <i name="atom">     24.95726533 </i>
    <i name="e_fr_energy">     -6.75278355 </i>
    <i name="e_wo_entrp">     -6.75858146 </i>
    <i name="e_0_energy">     -6.75471618 </i>
   </energy>
  </scstep>
  <structure>
   <crystal>
    <varray name="basis" >
     <v>      11.21435918       0.00000000       0.00000000 </v>
     <v>       5.60717866       9.71191963       0.00000000 </v>
     <v>       0.00000000       0.00000000      31.44560795 </v>
    </varray>
    <i name="volume">   3424.83408825 </i>
    <varray name="rec_basis" >
     <v>       0.08917139      -0.05148312       0.00000000 </v>
     <v>       0.00000000       0.10296626       0.00000000 </v>
     <v>       0.00000000       0.00000000       0.03180094 </v>
    </varray>
   </crystal>
   <varray name="positions" >
    <v>       0.18710416       0.51483125       0.17094480 </v>
    <v>       0.18844098       0.51483131       0.14706463 </v>
   </varray>
  </structure>
  <varray name="forces" >
   <v>       0.00137398      -0.00031178      -0.00579969 </v>
   <v>      -0.00137398       0.00031178       0.00579969 </v>
  </varray>
  <varray name="stress" >
   <v>      -0.21408962       0.00012042      -0.00875972 </v>
   <v>       0.00012042      -0.21440158       0.00000083 </v>
   <v>      -0.00875972       0.00000083       0.24177653 </v>
  </varray>
  <energy>
   <i name="e_fr_energy">     -6.75278355 </i>
   <i name="e_wo_entrp">     -6.75471618 </i>
   <i name="e_0_energy">      0.00579791 </i>
  </energy>
  <time name="totalsc">    0.72    0.74</time>
 </calculation>
 <calculation>
  <scstep>
   <time name="dav">    0.13    0.13</time>
   <time name="total">    0.15    0.15</time>
   <energy>
    <i name="alphaZ">      0.00284530 </i>
    <i name="ewald">     17.04246267 </i>
    <i name="hartreedc">    -33.37806935 </i>
    <i name="XCdc">      5.29644263 </i>
    <i name="pawpsdc">     24.58448544 </i>
    <i name="pawaedc">    -24.63315306 </i>
    <i name="eentropy">      0.00579791 </i>
    <i name="bandstr">    -20.63083856 </i>
    <i name="atom">     24.95726533 </i>
    <i name="e_fr_energy">     -6.75276169 </i>
    <i name="e_wo_entrp">     -6.75855960 </i>
    <i name="e_0_energy">     -6.75469433 </i>
   </energy>
  </scstep>
  <scstep>
   <time name="diag">    0.04    0.04</time>
   <time name="diis">    0.10    0.10</time>
   <time name="orth">    0.00    0.00</time>
   <time name="total">    0.15    0.16</time>
   <energy>
    <i name="e_fr_energy">     -6.75272004 </i>
    <i name="e_wo_entrp">     -6.75851795 </i>
    <i name="e_0_energy">     -6.75465268 </i>
   </energy>
  </scstep>
  <scstep>
   <time name="diag">    0.04    0.04</time>
   <time name="diis">    0.10    0.10</time>
   <time name="orth">    0.00    0.00</time>
   <time name="total">    0.16    0.16</time>
   <energy>
    <i name="e_fr_energy">     -6.75274302 </i>
    <i name="e_wo_entrp">     -6.75854093 </i>
    <i name="e_0_energy">     -6.75467566 </i>
   </energy>
  </scstep>
  <scstep>
   <time name="diag">    0.04    0.04</time>
   <time name="diis">    0.10    0.10</time>
   <time name="orth">    0.00    0.00</time>
   <time name="total">    0.15    0.15</time>
   <energy>
    <i name="alphaZ">      0.00284530 </i>
    <i name="ewald">     17.04246267 </i>
    <i name="hartreedc">    -33.37857643 </i>
    <i name="XCdc">      5.29646584 </i>
    <i name="pawpsdc">     24.58608263 </i>
    <i name="pawaedc">    -24.63474878 </i>
    <i name="eentropy">      0.00579791 </i>
    <i name="bandstr">    -20.63033926 </i>
    <i name="atom">     24.95726533 </i>
    <i name="e_fr_energy">     -6.75274480 </i>
    <i name="e_wo_entrp">     -6.75854271 </i>
    <i name="e_0_energy">     -6.75467743 </i>
   </energy>
  </scstep>
  <structure>
   <crystal>
    <varray name="basis" >
     <v>      11.21435918       0.00000000       0.00000000 </v>
     <v>       5.60717866       9.71191963       0.00000000 </v>
     <v>       0.00000000       0.00000000      31.44560795 </v>
    </varray>
    <i name="volume">   3424.83408825 </i>
    <varray name="rec_basis" >
     <v>       0.08917139      -0.05148312       0.00000000 </v>
     <v>       0.00000000       0.10296626       0.00000000 </v>
     <v>       0.00000000       0.00000000       0.03180094 </v>
    </varray>
   </crystal>
   <varray name="positions" >
    <v>       0.18766949       0.51637575       0.17094480 </v>
    <v>       0.18844098       0.51483131       0.14706463 </v>
   </varray>
  </structure>
  <varray name="forces" >
   <v>       0.00020928      -0.00026843      -0.00623349 </v>
   <v>      -0.00020928       0.00026843       0.00623349 </v>
  </varray>
  <varray name="stress" >
   <v>      -0.21454472       0.00013077      -0.00014939 </v>
   <v>       0.00013077      -0.21448588       0.00892555 </v>
   <v>      -0.00014939       0.00892555       0.24151412 </v>
  </varray>
  <energy>
   <i name="e_fr_energy">     -6.75274480 </i>
   <i name="e_wo_entrp">     -6.75467743 </i>
   <i name="e_0_energy">      0.00579791 </i>
  </energy>
  <time name="totalsc">    0.70    0.71</time>
 </calculation>
 <calculation>
  <scstep>
   <time name="dav">    0.13    0.13</time>
   <time name="total">    0.15    0.15</time>
   <energy>
    <i name="alphaZ">      0.00284530 </i>
    <i name="ewald">     17.04246214 </i>
    <i name="hartreedc">    -33.37721804 </i>
    <i name="XCdc">      5.29636551 </i>
    <i name="pawpsdc">     24.58488331 </i>
    <i name="pawaedc">    -24.63355050 </i>
    <i name="eentropy">      0.00579791 </i>
    <i name="bandstr">    -20.63169174 </i>
    <i name="atom">     24.95726533 </i>
    <i name="e_fr_energy">     -6.75284078 </i>
    <i name="e_wo_entrp">     -6.75863869 </i>
    <i name="e_0_energy">     -6.75477342 </i>
   </energy>
  </scstep>
  <scstep>
   <time name="diag">    0.04    0.04</time>
   <time name="diis">    0.10    0.10</time>
   <time name="orth">    0.00    0.00</time>
   <time name="total">    0.16    0.16</time>
   <energy>
    <i name="e_fr_energy">     -6.75278661 </i>
    <i name="e_wo_entrp">     -6.75858452 </i>
    <i name="e_0_energy">     -6.75471925 </i>
   </energy>
  </scstep>
  <scstep>
   <time name="diag">    0.04    0.04</time>
   <time name="diis">    0.10    0.10</time>
   <time name="orth">    0.00    0.00</time>
   <time name="total">    0.16    0.16</time>
   <energy>
    <i name="e_fr_energy">     -6.75279344 </i>
    <i name="e_wo_entrp">     -6.75859135 </i>
    <i name="e_0_energy">     -6.75472608 </i>
   </energy>
  </scstep>
  <scstep>
   <time name="diag">    0.04    0.04</time>
   <time name="diis">    0.10    0.10</time>
   <time name="orth">    0.00    0.00</time>
   <time name="total">    0.15    0.15</time>
   <energy>
    <i name="alphaZ">      0.00284530 </i>
    <i name="ewald">     17.04246214 </i>
    <i name="hartreedc">    -33.37860415 </i>
    <i name="XCdc">      5.29647282 </i>
    <i name="pawpsdc">     24.58614225 </i>
    <i name="pawaedc">    -24.63480872 </i>
    <i name="eentropy">      0.00579791 </i>
    <i name="bandstr">    -20.63036969 </i>
    <i name="atom">     24.95726533 </i>
    <i name="e_fr_energy">     -6.75279681 </i>
    <i name="e_wo_entrp">     -6.75859472 </i>
    <i name="e_0_energy">     -6.75472945 </i>
   </energy>
  </scstep>
  <structure>
   <crystal>
    <varray name="basis" >
     <v>      11.21435918       0.00000000       0.00000000 </v>
     <v>       5.60717866       9.71191963       0.00000000 </v>
     <v>       0.00000000       0.00000000      31.44560795 </v>
    </varray>
    <i name="volume">   3424.83408825 </i>
    <varray name="rec_basis" >
     <v>       0.08917139      -0.05148312       0.00000000 </v>
     <v>       0.00000000       0.10296626       0.00000000 </v>
     <v>       0.00000000       0.00000000       0.03180094 </v>
    </varray>
   </crystal>
   <varray name="positions" >
    <v>       0.18921398       0.51328676       0.17094480 </v>
    <v>       0.18844098       0.51483131       0.14706463 </v>
   </varray>
  </structure>
  <varray name="forces" >
   <v>      -0.00024736       0.00110411      -0.00596143 </v>
   <v>       0.00024736      -0.00110411       0.00596143 </v>
  </varray>
  <varray name="stress" >
   <v>      -0.21427406       0.00011815      -0.00000938 </v>
   <v>       0.00011815      -0.21423487      -0.00876148 </v>
   <v>      -0.00000938      -0.00876148       0.24176621 </v>
  </varray>
  <energy>
   <i name="e_fr_energy">     -6.75279681 </i>
   <i name="e_wo_entrp">     -6.75472945 </i>
   <i name="e_0_energy">      0.00579791 </i>
  </energy>
  <time name="totalsc">    0.70    0.71</time>
 </calculation>
 <calculation>
  <scstep>
   <time name="dav">    0.12    0.12</time>
   <time name="total">    0.14    0.15</time>
   <energy>
    <i name="alphaZ">      0.00284530 </i>
    <i name="ewald">     16.67005963 </i>
    <i name="hartreedc">    -33.25168900 </i>
    <i name="XCdc">      5.28101699 </i>
    <i name="pawpsdc">     24.58381256 </i>
    <i name="pawaedc">    -24.63248069 </i>
    <i name="eentropy">      0.00579791 </i>
    <i name="bandstr">    -20.36606916 </i>
    <i name="atom">     24.95726533 </i>
    <i name="e_fr_energy">     -6.74944113 </i>
    <i name="e_wo_entrp">     -6.75523904 </i>
    <i name="e_0_energy">     -6.75137377 </i>
   </energy>
  </scstep>
  <scstep>
   <time name="diag">    0.04    0.04</time>
   <time name="diis">    0.10    0.10</time>
   <time name="orth">    0.00    0.00</time>
   <time name="total">    0.16    0.16</time>
   <energy>
    <i name="e_fr_energy">     -6.74913503 </i>
    <i name="e_wo_entrp">     -6.75493294 </i>
    <i name="e_0_energy">     -6.75106767 </i>
   </energy>
  </scstep>
  <scstep>
   <time name="diag">    0.04    0.04</time>
   <time name="diis">    0.10    0.10</time>
   <time name="orth">    0.00    0.00</time>
   <time name="total">    0.16    0.16</time>
   <energy>
    <i name="e_fr_energy">     -6.74904660 </i>
    <i name="e_wo_entrp">     -6.75484451 </i>
    <i name="e_0_energy">     -6.75097924 </i>
   </energy>
  </scstep>
  <scstep>
   <time name="diag">    0.04    0.04</time>
   <time name="diis">    0.10    0.10</time>
   <time name="orth">    0.00    0.00</time>
   <time name="total">    0.15    0.15</time>
   <energy>
    <i name="alphaZ">      0.00284530 </i>
    <i name="ewald">     16.67005963 </i>
    <i name="hartreedc">    -33.11117052 </i>
    <i name="XCdc">      5.26118033 </i>
    <i name="pawpsdc">     23.60283591 </i>
    <i name="pawaedc">    -23.64959481 </i>
    <i name="eentropy">      0.00579791 </i>
    <i name="bandstr">    -20.48826942 </i>
    <i name="atom">     24.95726533 </i>
    <i name="e_fr_energy">     -6.74905036 </i>
    <i name="e_wo_entrp">     -6.75484827 </i>
    <i name="e_0_energy">     -6.75098300 </i>
   </energy>
  </scstep>
  <structure>
   <crystal>
    <varray name="basis" >
     <v>      11.21435918       0.00000000       0.00000000 </v>
     <v>       5.60717866       9.71191963       0.00000000 </v>
     <v>       0.00000000       0.00000000      31.44560795 </v>
    </varray>
    <i name="volume">   3424.83408825 </i>
    <varray name="rec_basis" >
     <v>       0.08917139      -0.05148312       0.00000000 </v>
     <v>       0.00000000       0.10296626       0.00000000 </v>
     <v>       0.00000000       0.00000000       0.03180094 </v>
    </varray>
   </crystal>
   <varray name="positions" >
    <v>       0.18844173       0.51483125       0.17142181 </v>
    <v>       0.18844098       0.51483131       0.14706463 </v>
   </varray>
  </structure>
  <varray name="forces" >
   <v>      -0.00014221      -0.00041494      -0.48723552 </v>
   <v>       0.00014221       0.00041494       0.48723552 </v>
  </varray>
  <varray name="stress" >
   <v>      -0.20466392       0.00011597      -0.00000024 </v>
   <v>       0.00011597      -0.20479593      -0.00023187 </v>
   <v>      -0.00000024      -0.00023187       0.05260848 </v>
  </varray>
  <energy>
   <i name="e_fr_energy">     -6.74905036 </i>
   <i name="e_wo_entrp">     -6.75098300 </i>
   <i name="e_0_energy">      0.00579791 </i>
  </energy>
  <time name="totalsc">    0.69    0.70</time>
 </calculation>
 <calculation>
  <scstep>
   <time name="dav">    0.12    0.12</time>
   <time name="total">    0.14    0.14</time>
   <energy>
    <i name="alphaZ">      0.00284530 </i>
    <i name="ewald">     17.43779785 </i>
    <i name="hartreedc">    -33.36608612 </i>
    <i name="XCdc">      5.29266173 </i>
    <i name="pawpsdc">     23.58551917 </i>
    <i name="pawaedc">    -23.63228915 </i>
    <i name="eentropy">      0.00579791 </i>
    <i name="bandstr">    -21.03391104 </i>
    <i name="atom">     24.95726533 </i>
    <i name="e_fr_energy">     -6.75039902 </i>
    <i name="e_wo_entrp">     -6.75619694 </i>
    <i name="e_0_energy">     -6.75233166 </i>
   </energy>
  </scstep>
  <scstep>
   <time name="diag">    0.04    0.04</time>
   <time name="diis">    0.10    0.10</time>
   <time name="orth">    0.00    0.00</time>
   <time name="total">    0.16    0.16</time>
   <energy>
    <i name="e_fr_energy">     -6.74924663 </i>
    <i name="e_wo_entrp">     -6.75504454 </i>
    <i name="e_0_energy">     -6.75117927 </i>
   </energy>
  </scstep>
  <scstep>
   <time name="diag">    0.04    0.04</time>
   <time name="diis">    0.10    0.10</time>
   <time name="orth">    0.00    0.00</time>
   <time name="total">    0.16    0.16</time>
   <energy>
    <i name="e_fr_energy">     -6.74882667 </i>
    <i name="e_wo_entrp">     -6.75462458 </i>
    <i name="e_0_energy">     -6.75075930 </i>
   </energy>
  </scstep>
  <scstep>
   <time name="diag">    0.04    0.04</time>
   <time name="diis">    0.10    0.10</time>
   <time name="orth">    0.00    0.00</time>
   <time name="total">    0.15    0.15</time>
   <energy>
    <i name="alphaZ">      0.00284530 </i>
    <i name="ewald">     17.43779785 </i>
    <i name="hartreedc">    -33.65384557 </i>
    <i name="XCdc">      5.33305151 </i>
    <i name="pawpsdc">     25.59485824 </i>
    <i name="pawaedc">    -25.64558733 </i>
    <i name="eentropy">      0.00579791 </i>
    <i name="bandstr">    -20.78101222 </i>
    <i name="atom">     24.95726533 </i>
    <i name="e_fr_energy">     -6.74882900 </i>
    <i name="e_wo_entrp">     -6.75462691 </i>
    <i name="e_0_energy">     -6.75076163 </i>
   </energy>
  </scstep>
  <structure>
   <crystal>
    <varray name="basis" >
     <v>      11.21435918       0.00000000       0.00000000 </v>
     <v>       5.60717866       9.71191963       0.00000000 </v>
     <v>       0.00000000       0.00000000      31.44560795 </v>
    </varray>
    <i name="volume">   3424.83408825 </i>
    <varray name="rec_basis" >
     <v>       0.08917139      -0.05148312       0.00000000 </v>
     <v>       0.00000000       0.10296626       0.00000000 </v>
     <v>       0.00000000       0.00000000       0.03180094 </v>
    </varray>
   </crystal>
   <varray name="positions" >
    <v>       0.18844173       0.51483125       0.17046779 </v>
    <v>       0.18844098       0.51483131       0.14706463 </v>
   </varray>
  </structure>
  <varray name="forces" >
   <v>       0.00028532       0.00023347       0.53705394 </v>
   <v>      -0.00028532      -0.00023347      -0.53705394 </v>
  </varray>
  <varray name="stress" >
   <v>      -0.22468889       0.00013060       0.00000328 </v>
   <v>       0.00013060      -0.22482471      -0.00001707 </v>
   <v>       0.00000328      -0.00001707       0.44739162 </v>
  </varray>
  <energy>
   <i name="e_fr_energy">     -6.74882900 </i>
   <i name="e_wo_entrp">     -6.75076163 </i>
   <i name="e_0_energy">      0.00579791 </i>
  </energy>
  <time name="totalsc">    0.69    0.70</time>
 </calculation>
 <calculation>
  <scstep>
   <time name="dav">    0.13    0.13</time>
   <time name="total">    0.15    0.15</time>
   <energy>
    <i name="alphaZ">      0.00284530 </i>
    <i name="ewald">     17.04246657 </i>
    <i name="hartreedc">    -33.52001447 </i>
    <i name="XCdc">      5.31632414 </i>
    <i name="pawpsdc">     25.63812560 </i>
    <i name="pawaedc">    -25.68885379 </i>
    <i name="eentropy">      0.00579791 </i>
    <i name="bandstr">    -20.50707827 </i>
    <i name="atom">     24.95726533 </i>
    <i name="e_fr_energy">     -6.75312169 </i>
    <i name="e_wo_entrp">     -6.75891960 </i>
    <i name="e_0_energy">     -6.75505433 </i>
   </energy>
  </scstep>
  <scstep>
   <time name="diag">    0.04    0.04</time>
   <time name="diis">    0.10    0.10</time>
   <time name="orth">    0.00    0.00</time>
   <time name="total">    0.16    0.16</time>
   <energy>
    <i name="e_fr_energy">     -6.75280506 </i>
    <i name="e_wo_entrp">     -6.75860297 </i>
    <i name="e_0_energy">     -6.75473770 </i>
   </energy>
  </scstep>
  <scstep>
   <time name="diag">    0.04    0.04</time>
   <time name="diis">    0.10    0.10</time>
   <time name="orth">    0.00    0.00</time>
   <time name="total">    0.16    0.16</time>
   <energy>
    <i name="e_fr_energy">     -6.75273420 </i>
    <i name="e_wo_entrp">     -6.75853211 </i>
    <i name="e_0_energy">     -6.75466684 </i>
   </energy>
  </scstep>
  <scstep>
   <time name="diag">    0.04    0.04</time>
   <time name="diis">    0.10    0.10</time>
   <time name="orth">    0.00    0.00</time>
   <time name="total">    0.15    0.15</time>
   <energy>
    <i name="alphaZ">      0.00284530 </i>
    <i name="ewald">     17.04246657 </i>
    <i name="hartreedc">    -33.37832012 </i>
    <i name="XCdc">      5.29627435 </i>
    <i name="pawpsdc">     24.60916706 </i>
    <i name="pawaedc">    -24.65784189 </i>
    <i name="eentropy">      0.00579791 </i>
    <i name="bandstr">    -20.63039503 </i>
    <i name="atom">     24.95726533 </i>
    <i name="e_fr_energy">     -6.75274052 </i>
    <i name="e_wo_entrp">     -6.75853843 </i>
    <i name="e_0_energy">     -6.75467316 </i>
   </energy>
  </scstep>
  <structure>
   <crystal>
    <varray name="basis" >
     <v>      11.21435918       0.00000000       0.00000000 </v>
     <v>       5.60717866       9.71191963       0.00000000 </v>
     <v>       0.00000000       0.00000000      31.44560795 </v>
    </varray>
    <i name="volume">   3424.83408825 </i>
    <varray name="rec_basis" >
     <v>       0.08917139      -0.05148312       0.00000000 </v>
     <v>       0.00000000       0.10296626       0.00000000 </v>
     <v>       0.00000000       0.00000000       0.03180094 </v>
    </varray>
   </crystal>
   <varray name="positions" >
    <v>       0.18844173       0.51483125       0.17094480 </v>
    <v>       0.18977855       0.51483131       0.14706463 </v>
   </varray>
  </structure>
  <varray name="forces" >
   <v>       0.00052212      -0.00037088      -0.00671256 </v>
   <v>      -0.00052212       0.00037088       0.00671256 </v>
  </varray>
  <varray name="stress" >
   <v>      -0.21372201       0.00012599      -0.00883120 </v>
   <v>       0.00012599      -0.21404129      -0.00000157 </v>
   <v>      -0.00883120      -0.00000157       0.24149655 </v>
  </varray>
  <energy>
   <i name="e_fr_energy">     -6.75274052 </i>
   <i name="e_wo_entrp">     -6.75467316 </i>
   <i name="e_0_energy">      0.00579791 </i>
  </energy>
  <time name="totalsc">    0.70    0.71</time>
 </calculation>
 <calculation>
  <scstep>
   <time name="dav">    0.14    0.14</time>
   <time name="total">    0.16    0.17</time>
   <energy>
    <i name="alphaZ">      0.00284530 </i>
    <i name="ewald">     17.04245824 </i>
    <i name="hartreedc">    -33.37999335 </i>
    <i name="XCdc">      5.29670600 </i>
    <i name="pawpsdc">     24.58977087 </i>
    <i name="pawaedc">    -24.63845184 </i>
    <i name="eentropy">      0.00579791 </i>
    <i name="bandstr">    -20.62925005 </i>
    <i name="atom">     24.95726533 </i>
    <i name="e_fr_energy">     -6.75285160 </i>
    <i name="e_wo_entrp">     -6.75864951 </i>
    <i name="e_0_energy">     -6.75478424 </i>
   </energy>
  </scstep>
  <scstep>
   <time name="diag">    0.04    0.04</time>
   <time name="diis">    0.10    0.10</time>
   <time name="orth">    0.00    0.00</time>
   <time name="total">    0.16    0.16</time>
   <energy>
    <i name="e_fr_energy">     -6.75276700 </i>
    <i name="e_wo_entrp">     -6.75856491 </i>
    <i name="e_0_energy">     -6.75469964 </i>
   </energy>
  </scstep>
  <scstep>
   <time name="diag">    0.04    0.04</time>
   <time name="diis">    0.10    0.10</time>
   <time name="orth">    0.00    0.00</time>
   <time name="total">    0.16    0.16</time>
   <energy>
    <i name="e_fr_energy">     -6.75278949 </i>
    <i name="e_wo_entrp">     -6.75858740 </i>
    <i name="e_0_energy">     -6.75472213 </i>
   </energy>
  </scstep>
  <scstep>
   <time name="diag">    0.04    0.04</time>
   <time name="diis">    0.10    0.10</time>
   <time name="orth">    0.00    0.00</time>
   <time name="total">    0.15    0.15</time>
   <energy>
    <i name="alphaZ">      0.00284530 </i>
    <i name="ewald">     17.04245824 </i>
    <i name="hartreedc">    -33.37891590 </i>
    <i name="XCdc">      5.29649125 </i>
    <i name="pawpsdc">     24.58620845 </i>
    <i name="pawaedc">    -24.63487349 </i>
    <i name="eentropy">      0.00579791 </i>
    <i name="bandstr">    -20.63006993 </i>
    <i name="atom">     24.95726533 </i>
    <i name="e_fr_energy">     -6.75279283 </i>
    <i name="e_wo_entrp">     -6.75859074 </i>
    <i name="e_0_energy">     -6.75472547 </i>
   </energy>
  </scstep>
  <structure>
   <crystal>
    <varray name="basis" >
     <v>      11.21435918       0.00000000       0.00000000 </v>
     <v>       5.60717866       9.71191963       0.00000000 </v>
     <v>       0.00000000       0.00000000      31.44560795 </v>
    </varray>
    <i name="volume">   3424.83408825 </i>
    <varray name="rec_basis" >
     <v>       0.08917139      -0.05148312       0.00000000 </v>
     <v>       0.00000000       0.10296626       0.00000000 </v>
     <v>       0.00000000       0.00000000       0.03180094 </v>
    </varray>
   </crystal>
   <varray name="positions" >
    <v>       0.18844173       0.51483125       0.17094480 </v>
    <v>       0.18710341       0.51483131       0.14706463 </v>
   </varray>
  </structure>
  <varray name="forces" >
   <v>      -0.00095703       0.00020869      -0.00597651 </v>
   <v>       0.00095703      -0.00020869       0.00597651 </v>
  </varray>
  <varray name="stress" >
   <v>      -0.21410734       0.00012053       0.00876939 </v>
   <v>       0.00012053      -0.21441125      -0.00000351 </v>
   <v>       0.00876939      -0.00000351       0.24175157 </v>
  </varray>
  <energy>
   <i name="e_fr_energy">     -6.75279283 </i>
   <i name="e_wo_entrp">     -6.75472547 </i>
   <i name="e_0_energy">      0.00579791 </i>
  </energy>
  <time name="totalsc">    0.71    0.72</time>
 </calculation>
 <calculation>
  <scstep>
   <time name="dav">    0.12    0.12</time>
   <time name="total">    0.14    0.15</time>
   <energy>
    <i name="alphaZ">      0.00284530 </i>
    <i name="ewald">     17.04246214 </i>
    <i name="hartreedc">    -33.37827755 </i>
    <i name="XCdc">      5.29645657 </i>
    <i name="pawpsdc">     24.58424517 </i>
    <i name="pawaedc">    -24.63291312 </i>
    <i name="eentropy">      0.00579791 </i>
    <i name="bandstr">    -20.63064165 </i>
    <i name="atom">     24.95726533 </i>
    <i name="e_fr_energy">     -6.75275990 </i>
    <i name="e_wo_entrp">     -6.75855782 </i>
    <i name="e_0_energy">     -6.75469254 </i>
   </energy>
  </scstep>
  <scstep>
   <time name="diag">    0.04    0.04</time>
   <time name="diis">    0.10    0.10</time>
   <time name="orth">    0.00    0.00</time>
   <time name="total">    0.16    0.16</time>
   <energy>
    <i name="e_fr_energy">     -6.75272111 </i>
    <i name="e_wo_entrp">     -6.75851902 </i>
    <i name="e_0_energy">     -6.75465374 </i>
   </energy>
  </scstep>
  <scstep>
   <time name="diag">    0.04    0.04</time>
   <time name="diis">    0.10    0.10</time>
   <time name="orth">    0.00    0.00</time>
   <time name="total">    0.16    0.16</time>
   <energy>
    <i name="e_fr_energy">     -6.75274357 </i>
    <i name="e_wo_entrp">     -6.75854148 </i>
    <i name="e_0_energy">     -6.75467621 </i>
   </energy>
  </scstep>
  <scstep>
   <time name="diag">    0.04    0.04</time>
   <time name="diis">    0.10    0.10</time>
   <time name="orth">    0.00    0.00</time>
   <time name="total">    0.15    0.15</time>
   <energy>
    <i name="alphaZ">      0.00284530 </i>
    <i name="ewald">     17.04246214 </i>
    <i name="hartreedc">    -33.37864176 </i>
    <i name="XCdc">      5.29646786 </i>
    <i name="pawpsdc">     24.58625439 </i>
    <i name="pawaedc">    -24.63492048 </i>
    <i name="eentropy">      0.00579791 </i>
    <i name="bandstr">    -20.63027598 </i>
    <i name="atom">     24.95726533 </i>
    <i name="e_fr_energy">     -6.75274530 </i>
    <i name="e_wo_entrp">     -6.75854321 </i>
    <i name="e_0_energy">     -6.75467794 </i>
   </energy>
  </scstep>
  <structure>
   <crystal>
    <varray name="basis" >
     <v>      11.21435918       0.00000000       0.00000000 </v>
     <v>       5.60717866       9.71191963       0.00000000 </v>
     <v>       0.00000000       0.00000000      31.44560795 </v>
    </varray>
    <i name="volume">   3424.83408825 </i>
    <varray name="rec_basis" >
     <v>       0.08917139      -0.05148312       0.00000000 </v>
     <v>       0.00000000       0.10296626       0.00000000 </v>
     <v>       0.00000000       0.00000000       0.03180094 </v>
    </varray>
   </crystal>
   <varray name="positions" >
    <v>       0.18844173       0.51483125       0.17094480 </v>
    <v>       0.18766873       0.51637580       0.14706463 </v>
   </varray>
  </structure>
  <varray name="forces" >
   <v>       0.00021353       0.00024692      -0.00566424 </v>
   <v>      -0.00021353      -0.00024692       0.00566424 </v>
  </varray>
  <varray name="stress" >
   <v>      -0.21441742       0.00012969       0.00015940 </v>
   <v>       0.00012969      -0.21435672      -0.00892659 </v>
   <v>       0.00015940      -0.00892659       0.24164511 </v>
  </varray>
  <energy>
   <i name="e_fr_energy">     -6.75274530 </i>
   <i name="e_wo_entrp">     -6.75467794 </i>
   <i name="e_0_energy">      0.00579791 </i>
  </energy>
  <time name="totalsc">    0.70    0.70</time>
 </calculation>
 <calculation>
  <scstep>
   <time name="dav">    0.12    0.12</time>
   <time name="total">    0.14    0.14</time>
   <energy>
    <i name="alphaZ">      0.00284530 </i>
    <i name="ewald">     17.04246267 </i>
    <i name="hartreedc">    -33.37725941 </i>
    <i name="XCdc">      5.29636729 </i>
    <i name="pawpsdc">     24.58505720 </i>
    <i name="pawaedc">    -24.63372447 </i>
    <i name="eentropy">      0.00579791 </i>
    <i name="bandstr">    -20.63164392 </i>
    <i name="atom">     24.95726533 </i>
    <i name="e_fr_energy">     -6.75283210 </i>
    <i name="e_wo_entrp">     -6.75863001 </i>
    <i name="e_0_energy">     -6.75476474 </i>
   </energy>
  </scstep>
  <scstep>
   <time name="diag">    0.04    0.04</time>
   <time name="diis">    0.10    0.10</time>
   <time name="orth">    0.00    0.00</time>
   <time name="total">    0.16    0.16</time>
   <energy>
    <i name="e_fr_energy">     -6.75278339 </i>
    <i name="e_wo_entrp">     -6.75858130 </i>
    <i name="e_0_energy">     -6.75471603 </i>
   </energy>
  </scstep>
  <scstep>
   <time name="diag">    0.04    0.04</time>
   <time name="diis">    0.10    0.10</time>
   <time name="orth">    0.00    0.00</time>
   <time name="total">    0.16    0.16</time>
   <energy>
    <i name="e_fr_energy">     -6.75278969 </i>
    <i name="e_wo_entrp">     -6.75858761 </i>
    <i name="e_0_energy">     -6.75472233 </i>
   </energy>
  </scstep>
  <scstep>
   <time name="diag">    0.04    0.04</time>
   <time name="diis">    0.10    0.10</time>
   <time name="orth">    0.00    0.00</time>
   <time name="total">    0.15    0.15</time>
   <energy>
    <i name="alphaZ">      0.00284530 </i>
    <i name="ewald">     17.04246267 </i>
    <i name="hartreedc">    -33.37860186 </i>
    <i name="XCdc">      5.29647045 </i>
    <i name="pawpsdc">     24.58660997 </i>
    <i name="pawaedc">    -24.63527620 </i>
    <i name="eentropy">      0.00579791 </i>
    <i name="bandstr">    -20.63036664 </i>
    <i name="atom">     24.95726533 </i>
    <i name="e_fr_energy">     -6.75279307 </i>
    <i name="e_wo_entrp">     -6.75859098 </i>
    <i name="e_0_energy">     -6.75472571 </i>
   </energy>
  </scstep>
  <structure>
   <crystal>
    <varray name="basis" >
     <v>      11.21435918       0.00000000       0.00000000 </v>
     <v>       5.60717866       9.71191963       0.00000000 </v>
     <v>       0.00000000       0.00000000      31.44560795 </v>
    </varray>
    <i name="volume">   3424.83408825 </i>
    <varray name="rec_basis" >
     <v>       0.08917139      -0.05148312       0.00000000 </v>
     <v>       0.00000000       0.10296626       0.00000000 </v>
     <v>       0.00000000       0.00000000       0.03180094 </v>
    </varray>
   </crystal>
   <varray name="positions" >
    <v>       0.18844173       0.51483125       0.17094480 </v>
    <v>       0.18921322       0.51328681       0.14706463 </v>
   </varray>
  </structure>
  <varray name="forces" >
   <v>       0.00038390      -0.00148088      -0.00634010 </v>
   <v>      -0.00038390       0.00148088       0.00634010 </v>
  </varray>
  <varray name="stress" >
   <v>      -0.21431688       0.00011904       0.00001464 </v>
   <v>       0.00011904      -0.21427341       0.00875781 </v>
   <v>       0.00001464       0.00875781       0.24171917 </v>
  </varray>
  <energy>
   <i name="e_fr_energy">     -6.75279307 </i>
   <i name="e_wo_entrp">     -6.75472571 </i>
   <i name="e_0_energy">      0.00579791 </i>
  </energy>
  <time name="totalsc">    0.69    0.70</time>
 </calculation>
 <calculation>
  <scstep>
   <time name="dav">    0.12    0.12</time>
   <time name="total">    0.14    0.15</time>
   <energy>
    <i name="alphaZ">      0.00284530 </i>
    <i name="ewald">     17.43779785 </i>
    <i name="hartreedc">    -33.50656171 </i>
    <i name="XCdc">      5.31220278 </i>
    <i name="pawpsdc">     24.58425782 </i>
    <i name="pawaedc">    -24.63292592 </i>
    <i name="eentropy">      0.00579791 </i>
    <i name="bandstr">    -20.90992464 </i>
    <i name="atom">     24.95726533 </i>
    <i name="e_fr_energy">     -6.74924529 </i>
    <i name="e_wo_entrp">     -6.75504320 </i>
    <i name="e_0_energy">     -6.75117793 </i>
   </energy>
  </scstep>
  <scstep>
   <time name="diag">    0.04    0.04</time>
   <time name="diis">    0.10    0.10</time>
   <time name="orth">    0.00    0.00</time>
   <time name="total">    0.16    0.16</time>
   <energy>
    <i name="e_fr_energy">     -6.74892327 </i>
    <i name="e_wo_entrp">     -6.75472119 </i>
    <i name="e_0_energy">     -6.75085591 </i>
   </energy>
  </scstep>
  <scstep>
   <time name="diag">    0.04    0.04</time>
   <time name="diis">    0.10    0.10</time>
   <time name="orth">    0.00    0.00</time>
   <time name="total">    0.16    0.16</time>
   <energy>
    <i name="e_fr_energy">     -6.74881883 </i>
    <i name="e_wo_entrp">     -6.75461674 </i>
    <i name="e_0_energy">     -6.75075146 </i>
   </energy>
  </scstep>
  <scstep>
   <time name="diag">    0.04    0.04</time>
   <time name="diis">    0.10    0.10</time>
   <time name="orth">    0.00    0.00</time>
   <time name="total">    0.15    0.15</time>
   <energy>
    <i name="alphaZ">      0.00284530 </i>
    <i name="ewald">     17.43779785 </i>
    <i name="hartreedc">    -33.65719883 </i>
    <i name="XCdc">      5.33332467 </i>
    <i name="pawpsdc">     25.63330677 </i>
    <i name="pawaedc">    -25.68407689 </i>
    <i name="eentropy">      0.00579791 </i>
    <i name="bandstr">    -20.77788174 </i>
    <i name="atom">     24.95726533 </i>
    <i name="e_fr_energy">     -6.74881963 </i>
    <i name="e_wo_entrp">     -6.75461754 </i>
    <i name="e_0_energy">     -6.75075227 </i>
   </energy>
  </scstep>
  <structure>
   <crystal>
    <varray name="basis" >
     <v>      11.21435918       0.00000000       0.00000000 </v>
     <v>       5.60717866       9.71191963       0.00000000 </v>
     <v>       0.00000000       0.00000000      31.44560795 </v>
    </varray>
    <i name="volume">   3424.83408825 </i>
    <varray name="rec_basis" >
     <v>       0.08917139      -0.05148312       0.00000000 </v>
     <v>       0.00000000       0.10296626       0.00000000 </v>
     <v>       0.00000000       0.00000000       0.03180094 </v>
    </varray>
   </crystal>
   <varray name="positions" >
    <v>       0.18844173       0.51483125       0.17094480 </v>
    <v>       0.18844098       0.51483131       0.14754165 </v>
   </varray>
  </structure>
  <varray name="forces" >
   <v>       0.00006943       0.00037554       0.53668598 </v>
   <v>      -0.00006943      -0.00037554      -0.53668598 </v>
  </varray>
  <varray name="stress" >
   <v>      -0.22505636       0.00013094       0.00000792 </v>
   <v>       0.00013094      -0.22518427       0.00022308 </v>
   <v>       0.00000792       0.00022308       0.44672462 </v>
  </varray>
  <energy>
   <i name="e_fr_energy">     -6.74881963 </i>
   <i name="e_wo_entrp">     -6.75075227 </i>
   <i name="e_0_energy">      0.00579791 </i>
  </energy>
  <time name="totalsc">    0.70    0.70</time>
 </calculation>
 <calculation>
  <scstep>
   <time name="dav">    0.12    0.12</time>
   <time name="total">    0.14    0.14</time>
   <energy>
    <i name="alphaZ">      0.00284530 </i>
    <i name="ewald">     16.67005963 </i>
    <i name="hartreedc">    -33.39515141 </i>
    <i name="XCdc">      5.30111275 </i>
    <i name="pawpsdc">     25.64166581 </i>
    <i name="pawaedc">    -25.69240433 </i>
    <i name="eentropy">      0.00579791 </i>
    <i name="bandstr">    -20.24184505 </i>
    <i name="atom">     24.95726533 </i>
    <i name="e_fr_energy">     -6.75065405 </i>
    <i name="e_wo_entrp">     -6.75645197 </i>
    <i name="e_0_energy">     -6.75258669 </i>
   </energy>
  </scstep>
  <scstep>
   <time name="diag">    0.04    0.04</time>
   <time name="diis">    0.10    0.10</time>
   <time name="orth">    0.00    0.00</time>
   <time name="total">    0.16    0.16</time>
   <energy>
    <i name="e_fr_energy">     -6.74942209 </i>
    <i name="e_wo_entrp">     -6.75522000 </i>
    <i name="e_0_energy">     -6.75135472 </i>
   </energy>
  </scstep>
  <scstep>
   <time name="diag">    0.04    0.04</time>
   <time name="diis">    0.10    0.10</time>
   <time name="orth">    0.00    0.00</time>
   <time name="total">    0.16    0.16</time>
   <energy>
    <i name="e_fr_energy">     -6.74904015 </i>
    <i name="e_wo_entrp">     -6.75483806 </i>
    <i name="e_0_energy">     -6.75097279 </i>
   </energy>
  </scstep>
  <scstep>
   <time name="diag">    0.04    0.04</time>
   <time name="diis">    0.10    0.10</time>
   <time name="orth">    0.00    0.00</time>
   <time name="total">    0.16    0.16</time>
   <energy>
    <i name="e_fr_energy">     -6.74905433 </i>
    <i name="e_wo_entrp">     -6.75485224 </i>
    <i name="e_0_energy">     -6.75098697 </i>
   </energy>
  </scstep>
  <scstep>
   <time name="diag">    0.04    0.04</time>
   <time name="diis">    0.10    0.10</time>
   <time name="orth">    0.00    0.00</time>
   <time name="total">    0.16    0.16</time>
   <energy>
    <i name="e_fr_energy">     -6.74907465 </i>
    <i name="e_wo_entrp">     -6.75487256 </i>
    <i name="e_0_energy">     -6.75100729 </i>
   </energy>
  </scstep>
  <scstep>
   <time name="diag">    0.04    0.04</time>
   <time name="diis">    0.10    0.10</time>
   <time name="orth">    0.00    0.00</time>
   <time name="total">    0.15    0.15</time>
   <energy>
    <i name="alphaZ">      0.00284530 </i>
    <i name="ewald">     16.67005963 </i>
    <i name="hartreedc">    -33.11363301 </i>
    <i name="XCdc">      5.26159822 </i>
    <i name="pawpsdc">     23.57818600 </i>
    <i name="pawaedc">    -23.62494051 </i>
    <i name="eentropy">      0.00579791 </i>
    <i name="bandstr">    -20.48625390 </i>
    <i name="atom">     24.95726533 </i>
    <i name="e_fr_energy">     -6.74907503 </i>
    <i name="e_wo_entrp">     -6.75487294 </i>
    <i name="e_0_energy">     -6.75100767 </i>
   </energy>
  </scstep>
  <structure>
   <crystal>
    <varray name="basis" >
     <v>      11.21435918       0.00000000       0.00000000 </v>
     <v>       5.60717866       9.71191963       0.00000000 </v>
     <v>       0.00000000       0.00000000      31.44560795 </v>
    </varray>
    <i name="volume">   3424.83408825 </i>
    <varray name="rec_basis" >
     <v>       0.08917139      -0.05148312       0.00000000 </v>
     <v>       0.00000000       0.10296626       0.00000000 </v>
     <v>       0.00000000       0.00000000       0.03180094 </v>
    </varray>
   </crystal>
   <varray name="positions" >
    <v>       0.18844173       0.51483125       0.17094480 </v>
    <v>       0.18844098       0.51483131       0.14658762 </v>
   </varray>
  </structure>
  <varray name="forces" >
   <v>       0.00014109      -0.00035632      -0.48596367 </v>
   <v>      -0.00014109       0.00035632       0.48596367 </v>
  </varray>
  <varray name="stress" >
   <v>      -0.20579815       0.00011625       0.00000165 </v>
   <v>       0.00011625      -0.20592594       0.00000801 </v>
   <v>       0.00000165       0.00000801       0.05240208 </v>
  </varray>
  <energy>
   <i name="e_fr_energy">     -6.74907503 </i>
   <i name="e_wo_entrp">     -6.75100767 </i>
   <i name="e_0_energy">      0.00579791 </i>
  </energy>
  <dynmat>
   <varray name="hessian" >
    <v>      -0.06005441       0.01757246      -0.01133901       0.05467977      -0.01280139       0.00301914 </v>
    <v>       0.01757246      -0.04575122      -0.01534096      -0.01727010       0.05167217       0.01673190 </v>
    <v>      -0.01133901      -0.01534096     -34.14298189      -0.00514203       0.02207108      34.11565170 </v>
    <v>       0.05467977      -0.01727010      -0.00514203      -0.04930513       0.01249903       0.01346190 </v>
    <v>      -0.01280139       0.05167217       0.02207108       0.01249903      -0.05759313      -0.02346202 </v>
    <v>       0.00301914       0.01673190      34.11565170       0.01346190      -0.02346202     -34.08832151 </v>
   </varray>
   <v name="eigenvalues"> -6.82313412E+01 -1.37062872E-01 -7.72734402E-02  1.52511104E-09  2.99900643E-04  1.37028497E-03</v>
   <varray name="eigenvectors" >
    <v>   1.48635153E-04  3.32968728E-04  7.07389807E-01  1.92956083E-04 -4.72529058E-04 -7.06823363E-01</v>
    <v>  -5.47576888E-01  4.68747084E-01 -3.70169063E-02  5.04193185E-01 -4.72782602E-01 -3.64871960E-02</v>
    <v>   4.96326802E-01  4.55906580E-01  4.03030057E-02 -4.35740006E-01 -5.93834778E-01  4.09324828E-02</v>
    <v>  -6.05959695E-01 -5.38769062E-02  3.60410902E-01 -6.05979821E-01 -5.38681758E-02  3.60417514E-01</v>
    <v>   1.91018997E-01  5.69156742E-01  4.15487057E-01  2.08331650E-01  5.00608754E-01  4.15850515E-01</v>
    <v>   2.23928174E-01 -4.95563450E-01  4.40544622E-01  3.81190532E-01 -4.12705392E-01  4.41091277E-01</v>
   </varray>
  </dynmat>
  <time name="totalsc">    1.00    1.00</time>
  <eigenvalues>
   <array>
    <dimension dim="1">band</dimension>
    <dimension dim="2">kpoint</dimension>
    <dimension dim="3">spin</dimension>
    <field>eigene</field>
    <field>occ</field>
    <set>
     <set comment="spin 1">
      <set comment="kpoint 1">
       <r>  -10.2433    1.0003 </r>
       <r>   -0.0813    0.0000 </r>
       <r>    0.0100    0.0000 </r>
       <r>    0.0817    0.0000 </r>
       <r>    0.2948    0.0000 </r>
       <r>    0.5527    0.0000 </r>
       <r>    0.8139    0.0000 </r>
       <r>    0.9957    0.0000 </r>
      </set>
      <set comment="kpoint 2">
       <r>  -10.2431    0.9999 </r>
       <r>    0.0104    0.0000 </r>
       <r>    0.0783    0.0000 </r>
       <r>    0.1773    0.0000 </r>
       <r>    0.3571    0.0000 </r>
       <r>    0.6448    0.0000 </r>
       <r>    0.6967    0.0000 </r>
       <r>    0.8440    0.0000 </r>
      </set>
      <set comment="kpoint 3">
       <r>  -10.2431    0.9999 </r>
       <r>    0.1688    0.0000 </r>
       <r>    0.2691    0.0000 </r>
       <r>    0.2937    0.0000 </r>
       <r>    0.4645    0.0000 </r>
       <r>    0.4654    0.0000 </r>
       <r>    0.5234    0.0000 </r>
       <r>    0.6119    0.0000 </r>
      </set>
      <set comment="kpoint 4">
       <r>  -10.2431    0.9999 </r>
       <r>    0.0104    0.0000 </r>
       <r>    0.0783    0.0000 </r>
       <r>    0.1773    0.0000 </r>
       <r>    0.3571    0.0000 </r>
       <r>    0.6449    0.0000 </r>
       <r>    0.6968    0.0000 </r>
       <r>    0.8439    0.0000 </r>
      </set>
      <set comment="kpoint 5">
       <r>  -10.2431    0.9999 </r>
       <r>    0.0104    0.0000 </r>
       <r>    0.0783    0.0000 </r>
       <r>    0.1773    0.0000 </r>
       <r>    0.3571    0.0000 </r>
       <r>    0.6442    0.0000 </r>
       <r>    0.6965    0.0000 </r>
       <r>    0.8439    0.0000 </r>
      </set>
      <set comment="kpoint 6">
       <r>  -10.2432    1.0001 </r>
       <r>    0.1630    0.0000 </r>
       <r>    0.1927    0.0000 </r>
       <r>    0.3690    0.0000 </r>
       <r>    0.4881    0.0000 </r>
       <r>    0.5136    0.0000 </r>
       <r>    0.5707    0.0000 </r>
       <r>    0.7548    0.0000 </r>
      </set>
      <set comment="kpoint 7">
       <r>  -10.2432    1.0001 </r>
       <r>    0.1630    0.0000 </r>
       <r>    0.1926    0.0000 </r>
       <r>    0.3689    0.0000 </r>
       <r>    0.4881    0.0000 </r>
       <r>    0.5163    0.0000 </r>
       <r>    0.5684    0.0000 </r>
       <r>    0.7519    0.0000 </r>
      </set>
      <set comment="kpoint 8">
       <r>  -10.2431    0.9999 </r>
       <r>    0.1688    0.0000 </r>
       <r>    0.2691    0.0000 </r>
       <r>    0.2938    0.0000 </r>
       <r>    0.4645    0.0000 </r>
       <r>    0.4654    0.0000 </r>
       <r>    0.5233    0.0000 </r>
       <r>    0.6119    0.0000 </r>
      </set>
      <set comment="kpoint 9">
       <r>  -10.2432    1.0001 </r>
       <r>    0.1630    0.0000 </r>
       <r>    0.1927    0.0000 </r>
       <r>    0.3690    0.0000 </r>
       <r>    0.4881    0.0000 </r>
       <r>    0.5136    0.0000 </r>
       <r>    0.5707    0.0000 </r>
       <r>    0.7524    0.0000 </r>
      </set>
      <set comment="kpoint 10">
       <r>  -10.2431    0.9999 </r>
       <r>    0.1688    0.0000 </r>
       <r>    0.2709    0.0000 </r>
       <r>    0.2914    0.0000 </r>
       <r>    0.4638    0.0000 </r>
       <r>    0.4659    0.0000 </r>
       <r>    0.5233    0.0000 </r>
       <r>    0.6120    0.0000 </r>
      </set>
     </set>
    </set>
   </array>
  </eigenvalues>
  <separator name="orbital magnetization" >
   <v name="MAGDIPOLOUT">      0.00000000      0.00000000      0.00000000</v>
  </separator>
  <dos>
   <i name="efermi">    -10.15893866 </i>
   <total>
    <array>
     <dimension dim="1">gridpoints</dimension>
     <dimension dim="2">spin</dimension>
     <field>energy</field>
     <field>total</field>
     <field>integrated</field>
     <set>
      <set comment="spin 1">
       <r>   -11.2433     0.0000     0.0000 </r>
       <r>   -11.1992     0.0000     0.0000 </r>
       <r>   -11.1550     0.0000     0.0000 </r>
       <r>   -11.1109     0.0000     0.0000 </r>
       <r>   -11.0668    -0.0000    -0.0000 </r>
       <r>   -11.0226    -0.0000    -0.0000 </r>
       <r>   -10.9785    -0.0000    -0.0000 </r>
       <r>   -10.9344    -0.0000    -0.0000 </r>
       <r>   -10.8902    -0.0000    -0.0000 </r>
       <r>   -10.8461    -0.0000    -0.0000 </r>
       <r>   -10.8020    -0.0000    -0.0000 </r>
       <r>   -10.7579    -0.0000    -0.0000 </r>
       <r>   -10.7137    -0.0000    -0.0000 </r>
       <r>   -10.6696    -0.0000    -0.0000 </r>
       <r>   -10.6255    -0.0000    -0.0000 </r>
       <r>   -10.5813    -0.0004    -0.0000 </r>
       <r>   -10.5372    -0.0054    -0.0003 </r>
       <r>   -10.4931    -0.0467    -0.0023 </r>
       <r>   -10.4489    -0.2463    -0.0132 </r>
       <r>   -10.4048    -0.7112    -0.0446 </r>
       <r>   -10.3607    -0.5789    -0.0701 </r>
       <r>   -10.3166     2.8907     0.0574 </r>
       <r>   -10.2724    10.6382     0.5269 </r>
       <r>   -10.2283    16.3397     1.2480 </r>
       <r>   -10.1842    13.2022     1.8306 </r>
       <r>   -10.1400     5.1099     2.0561 </r>
       <r>   -10.0959     0.0375     2.0577 </r>
       <r>   -10.0518    -0.8342     2.0209 </r>
       <r>   -10.0076    -0.3764     2.0043 </r>
       <r>    -9.9635    -0.0853     2.0006 </r>
       <r>    -9.9194    -0.0116     2.0000 </r>
       <r>    -9.8753    -0.0010     2.0000 </r>
       <r>    -9.8311    -0.0001     2.0000 </r>
       <r>    -9.7870    -0.0000     2.0000 </r>
       <r>    -9.7429    -0.0000     2.0000 </r>
       <r>    -9.6987    -0.0000     2.0000 </r>
       <r>    -9.6546    -0.0000     2.0000 </r>
       <r>    -9.6105    -0.0000     2.0000 </r>
       <r>    -9.5663     0.0000     2.0000 </r>
       <r>    -9.5222     0.0000     2.0000 </r>
       <r>    -9.4781     0.0000     2.0000 </r>
       <r>    -9.4340     0.0000     2.0000 </r>
       <r>    -9.3898     0.0000     2.0000 </r>
       <r>    -9.3457     0.0000     2.0000 </r>
       <r>    -9.3016     0.0000     2.0000 </r>
       <r>    -9.2574     0.0000     2.0000 </r>
       <r>    -9.2133     0.0000     2.0000 </r>
       <r>    -9.1692     0.0000     2.0000 </r>
       <r>    -9.1251     0.0000     2.0000 </r>
       <r>    -9.0809     0.0000     2.0000 </r>
       <r>    -9.0368     0.0000     2.0000 </r>
       <r>    -8.9927     0.0000     2.0000 </r>
       <r>    -8.9485     0.0000     2.0000 </r>
       <r>    -8.9044     0.0000     2.0000 </r>
       <r>    -8.8603     0.0000     2.0000 </r>
       <r>    -8.8161     0.0000     2.0000 </r>
       <r>    -8.7720     0.0000     2.0000 </r>
       <r>    -8.7279     0.0000     2.0000 </r>
       <r>    -8.6838     0.0000     2.0000 </r>
       <r>    -8.6396     0.0000     2.0000 </r>
       <r>    -8.5955     0.0000     2.0000 </r>
       <r>    -8.5514     0.0000     2.0000 </r>
       <r>    -8.5072     0.0000     2.0000 </r>
       <r>    -8.4631     0.0000     2.0000 </r>
       <r>    -8.4190     0.0000     2.0000 </r>
       <r>    -8.3748     0.0000     2.0000 </r>
       <r>    -8.3307     0.0000     2.0000 </r>
       <r>    -8.2866     0.0000     2.0000 </r>
       <r>    -8.2425     0.0000     2.0000 </r>
       <r>    -8.1983     0.0000     2.0000 </r>
       <r>    -8.1542     0.0000     2.0000 </r>
       <r>    -8.1101     0.0000     2.0000 </r>
       <r>    -8.0659     0.0000     2.0000 </r>
       <r>    -8.0218     0.0000     2.0000 </r>
       <r>    -7.9777     0.0000     2.0000 </r>
       <r>    -7.9335     0.0000     2.0000 </r>
       <r>    -7.8894     0.0000     2.0000 </r>
       <r>    -7.8453     0.0000     2.0000 </r>
       <r>    -7.8012     0.0000     2.0000 </r>
       <r>    -7.7570     0.0000     2.0000 </r>
       <r>    -7.7129     0.0000     2.0000 </r>
       <r>    -7.6688     0.0000     2.0000 </r>
       <r>    -7.6246     0.0000     2.0000 </r>
       <r>    -7.5805     0.0000     2.0000 </r>
       <r>    -7.5364     0.0000     2.0000 </r>
       <r>    -7.4922     0.0000     2.0000 </r>
       <r>    -7.4481     0.0000     2.0000 </r>
       <r>    -7.4040     0.0000     2.0000 </r>
       <r>    -7.3599     0.0000     2.0000 </r>
       <r>    -7.3157     0.0000     2.0000 </r>
       <r>    -7.2716     0.0000     2.0000 </r>
       <r>    -7.2275     0.0000     2.0000 </r>
       <r>    -7.1833     0.0000     2.0000 </r>
       <r>    -7.1392     0.0000     2.0000 </r>
       <r>    -7.0951     0.0000     2.0000 </r>
       <r>    -7.0509     0.0000     2.0000 </r>
       <r>    -7.0068     0.0000     2.0000 </r>
       <r>    -6.9627     0.0000     2.0000 </r>
       <r>    -6.9186     0.0000     2.0000 </r>
       <r>    -6.8744     0.0000     2.0000 </r>
       <r>    -6.8303     0.0000     2.0000 </r>
       <r>    -6.7862     0.0000     2.0000 </r>
       <r>    -6.7420     0.0000     2.0000 </r>
       <r>    -6.6979     0.0000     2.0000 </r>
       <r>    -6.6538     0.0000     2.0000 </r>
       <r>    -6.6096     0.0000     2.0000 </r>
       <r>    -6.5655     0.0000     2.0000 </r>
       <r>    -6.5214     0.0000     2.0000 </r>
       <r>    -6.4773     0.0000     2.0000 </r>
       <r>    -6.4331     0.0000     2.0000 </r>
       <r>    -6.3890     0.0000     2.0000 </r>
       <r>    -6.3449     0.0000     2.0000 </r>
       <r>    -6.3007     0.0000     2.0000 </r>
       <r>    -6.2566     0.0000     2.0000 </r>
       <r>    -6.2125     0.0000     2.0000 </r>
       <r>    -6.1684     0.0000     2.0000 </r>
       <r>    -6.1242     0.0000     2.0000 </r>
       <r>    -6.0801     0.0000     2.0000 </r>
       <r>    -6.0360     0.0000     2.0000 </r>
       <r>    -5.9918     0.0000     2.0000 </r>
       <r>    -5.9477     0.0000     2.0000 </r>
       <r>    -5.9036     0.0000     2.0000 </r>
       <r>    -5.8594     0.0000     2.0000 </r>
       <r>    -5.8153     0.0000     2.0000 </r>
       <r>    -5.7712     0.0000     2.0000 </r>
       <r>    -5.7271     0.0000     2.0000 </r>
       <r>    -5.6829     0.0000     2.0000 </r>
       <r>    -5.6388     0.0000     2.0000 </r>
       <r>    -5.5947     0.0000     2.0000 </r>
       <r>    -5.5505     0.0000     2.0000 </r>
       <r>    -5.5064     0.0000     2.0000 </r>
       <r>    -5.4623     0.0000     2.0000 </r>
       <r>    -5.4181     0.0000     2.0000 </r>
       <r>    -5.3740     0.0000     2.0000 </r>
       <r>    -5.3299     0.0000     2.0000 </r>
       <r>    -5.2858     0.0000     2.0000 </r>
       <r>    -5.2416     0.0000     2.0000 </r>
       <r>    -5.1975     0.0000     2.0000 </r>
       <r>    -5.1534     0.0000     2.0000 </r>
       <r>    -5.1092     0.0000     2.0000 </r>
       <r>    -5.0651     0.0000     2.0000 </r>
       <r>    -5.0210     0.0000     2.0000 </r>
       <r>    -4.9768     0.0000     2.0000 </r>
       <r>    -4.9327     0.0000     2.0000 </r>
       <r>    -4.8886     0.0000     2.0000 </r>
       <r>    -4.8445     0.0000     2.0000 </r>
       <r>    -4.8003     0.0000     2.0000 </r>
       <r>    -4.7562     0.0000     2.0000 </r>
       <r>    -4.7121     0.0000     2.0000 </r>
       <r>    -4.6679     0.0000     2.0000 </r>
       <r>    -4.6238     0.0000     2.0000 </r>
       <r>    -4.5797     0.0000     2.0000 </r>
       <r>    -4.5355     0.0000     2.0000 </r>
       <r>    -4.4914     0.0000     2.0000 </r>
       <r>    -4.4473     0.0000     2.0000 </r>
       <r>    -4.4032     0.0000     2.0000 </r>
       <r>    -4.3590     0.0000     2.0000 </r>
       <r>    -4.3149     0.0000     2.0000 </r>
       <r>    -4.2708     0.0000     2.0000 </r>
       <r>    -4.2266     0.0000     2.0000 </r>
       <r>    -4.1825     0.0000     2.0000 </r>
       <r>    -4.1384     0.0000     2.0000 </r>
       <r>    -4.0942     0.0000     2.0000 </r>
       <r>    -4.0501     0.0000     2.0000 </r>
       <r>    -4.0060     0.0000     2.0000 </r>
       <r>    -3.9619     0.0000     2.0000 </r>
       <r>    -3.9177     0.0000     2.0000 </r>
       <r>    -3.8736     0.0000     2.0000 </r>
       <r>    -3.8295     0.0000     2.0000 </r>
       <r>    -3.7853     0.0000     2.0000 </r>
       <r>    -3.7412     0.0000     2.0000 </r>
       <r>    -3.6971     0.0000     2.0000 </r>
       <r>    -3.6529     0.0000     2.0000 </r>
       <r>    -3.6088     0.0000     2.0000 </r>
       <r>    -3.5647     0.0000     2.0000 </r>
       <r>    -3.5206     0.0000     2.0000 </r>
       <r>    -3.4764     0.0000     2.0000 </r>
       <r>    -3.4323     0.0000     2.0000 </r>
       <r>    -3.3882     0.0000     2.0000 </r>
       <r>    -3.3440     0.0000     2.0000 </r>
       <r>    -3.2999     0.0000     2.0000 </r>
       <r>    -3.2558     0.0000     2.0000 </r>
       <r>    -3.2117     0.0000     2.0000 </r>
       <r>    -3.1675     0.0000     2.0000 </r>
       <r>    -3.1234     0.0000     2.0000 </r>
       <r>    -3.0793     0.0000     2.0000 </r>
       <r>    -3.0351     0.0000     2.0000 </r>
       <r>    -2.9910     0.0000     2.0000 </r>
       <r>    -2.9469     0.0000     2.0000 </r>
       <r>    -2.9027     0.0000     2.0000 </r>
       <r>    -2.8586     0.0000     2.0000 </r>
       <r>    -2.8145     0.0000     2.0000 </r>
       <r>    -2.7704     0.0000     2.0000 </r>
       <r>    -2.7262     0.0000     2.0000 </r>
       <r>    -2.6821     0.0000     2.0000 </r>
       <r>    -2.6380     0.0000     2.0000 </r>
       <r>    -2.5938     0.0000     2.0000 </r>
       <r>    -2.5497     0.0000     2.0000 </r>
       <r>    -2.5056     0.0000     2.0000 </r>
       <r>    -2.4614     0.0000     2.0000 </r>
       <r>    -2.4173     0.0000     2.0000 </r>
       <r>    -2.3732     0.0000     2.0000 </r>
       <r>    -2.3291     0.0000     2.0000 </r>
       <r>    -2.2849     0.0000     2.0000 </r>
       <r>    -2.2408     0.0000     2.0000 </r>
       <r>    -2.1967     0.0000     2.0000 </r>
       <r>    -2.1525     0.0000     2.0000 </r>
       <r>    -2.1084     0.0000     2.0000 </r>
       <r>    -2.0643     0.0000     2.0000 </r>
       <r>    -2.0201     0.0000     2.0000 </r>
       <r>    -1.9760     0.0000     2.0000 </r>
       <r>    -1.9319     0.0000     2.0000 </r>
       <r>    -1.8878     0.0000     2.0000 </r>
       <r>    -1.8436     0.0000     2.0000 </r>
       <r>    -1.7995     0.0000     2.0000 </r>
       <r>    -1.7554     0.0000     2.0000 </r>
       <r>    -1.7112     0.0000     2.0000 </r>
       <r>    -1.6671     0.0000     2.0000 </r>
       <r>    -1.6230     0.0000     2.0000 </r>
       <r>    -1.5788     0.0000     2.0000 </r>
       <r>    -1.5347     0.0000     2.0000 </r>
       <r>    -1.4906     0.0000     2.0000 </r>
       <r>    -1.4465     0.0000     2.0000 </r>
       <r>    -1.4023     0.0000     2.0000 </r>
       <r>    -1.3582     0.0000     2.0000 </r>
       <r>    -1.3141     0.0000     2.0000 </r>
       <r>    -1.2699     0.0000     2.0000 </r>
       <r>    -1.2258     0.0000     2.0000 </r>
       <r>    -1.1817     0.0000     2.0000 </r>
       <r>    -1.1375     0.0000     2.0000 </r>
       <r>    -1.0934     0.0000     2.0000 </r>
       <r>    -1.0493     0.0000     2.0000 </r>
       <r>    -1.0052     0.0000     2.0000 </r>
       <r>    -0.9610     0.0000     2.0000 </r>
       <r>    -0.9169    -0.0000     2.0000 </r>
       <r>    -0.8728    -0.0000     2.0000 </r>
       <r>    -0.8286    -0.0000     2.0000 </r>
       <r>    -0.7845    -0.0000     2.0000 </r>
       <r>    -0.7404    -0.0000     2.0000 </r>
       <r>    -0.6962    -0.0000     2.0000 </r>
       <r>    -0.6521    -0.0000     2.0000 </r>
       <r>    -0.6080    -0.0000     2.0000 </r>
       <r>    -0.5639    -0.0000     2.0000 </r>
       <r>    -0.5197    -0.0000     2.0000 </r>
       <r>    -0.4756    -0.0000     2.0000 </r>
       <r>    -0.4315    -0.0000     2.0000 </r>
       <r>    -0.3873    -0.0002     2.0000 </r>
       <r>    -0.3432    -0.0018     1.9999 </r>
       <r>    -0.2991    -0.0113     1.9994 </r>
       <r>    -0.2550    -0.0463     1.9974 </r>
       <r>    -0.2108    -0.1176     1.9922 </r>
       <r>    -0.1667    -0.1681     1.9848 </r>
       <r>    -0.1226     0.0258     1.9859 </r>
       <r>    -0.0784     1.0747     2.0333 </r>
       <r>    -0.0343     3.8190     2.2019 </r>
       <r>     0.0098     7.7745     2.5449 </r>
       <r>     0.0540    10.9300     3.0273 </r>
       <r>     0.0981    13.5893     3.6270 </r>
       <r>     0.1422    18.2067     4.4304 </r>
       <r>     0.1863    22.0969     5.4056 </r>
       <r>     0.2305    19.7805     6.2785 </r>
       <r>     0.2746    14.2634     6.9079 </r>
       <r>     0.3187    12.4752     7.4585 </r>
       <r>     0.3629    13.6052     8.0589 </r>
       <r>     0.4070    13.9458     8.6743 </r>
       <r>     0.4511    15.6166     9.3634 </r>
       <r>     0.4953    20.2343    10.2564 </r>
       <r>     0.5394    22.7523    11.2604 </r>
       <r>     0.5835    20.2824    12.1555 </r>
       <r>     0.6276    16.6061    12.8883 </r>
       <r>     0.6718    14.7357    13.5386 </r>
       <r>     0.7159    13.7023    14.1433 </r>
       <r>     0.7600    12.2111    14.6822 </r>
       <r>     0.8042    10.5680    15.1485 </r>
       <r>     0.8483     8.8020    15.5369 </r>
       <r>     0.8924     5.9160    15.7980 </r>
       <r>     0.9366     2.6056    15.9130 </r>
       <r>     0.9807     0.8700    15.9514 </r>
       <r>     1.0248     0.6143    15.9785 </r>
       <r>     1.0689     0.4633    15.9990 </r>
       <r>     1.1131     0.1313    16.0047 </r>
       <r>     1.1572    -0.0435    16.0028 </r>
       <r>     1.2013    -0.0453    16.0008 </r>
       <r>     1.2455    -0.0155    16.0001 </r>
       <r>     1.2896    -0.0029    16.0000 </r>
       <r>     1.3337    -0.0003    16.0000 </r>
       <r>     1.3779    -0.0000    16.0000 </r>
       <r>     1.4220    -0.0000    16.0000 </r>
       <r>     1.4661    -0.0000    16.0000 </r>
       <r>     1.5102    -0.0000    16.0000 </r>
       <r>     1.5544    -0.0000    16.0000 </r>
       <r>     1.5985    -0.0000    16.0000 </r>
       <r>     1.6426    -0.0000    16.0000 </r>
       <r>     1.6868     0.0000    16.0000 </r>
       <r>     1.7309     0.0000    16.0000 </r>
       <r>     1.7750     0.0000    16.0000 </r>
       <r>     1.8192     0.0000    16.0000 </r>
       <r>     1.8633     0.0000    16.0000 </r>
       <r>     1.9074     0.0000    16.0000 </r>
       <r>     1.9515     0.0000    16.0000 </r>
       <r>     1.9957     0.0000    16.0000 </r>
      </set>
     </set>
    </array>
   </total>
  </dos>
 </calculation>
 <structure name="finalpos" >
  <crystal>
   <varray name="basis" >
    <v>      11.21435918       0.00000000       0.00000000 </v>
    <v>       5.60717866       9.71191963       0.00000000 </v>
    <v>       0.00000000       0.00000000      31.44560795 </v>
   </varray>
   <i name="volume">   3424.83408825 </i>
   <varray name="rec_basis" >
    <v>       0.08917139      -0.05148312       0.00000000 </v>
    <v>       0.00000000       0.10296626       0.00000000 </v>
    <v>       0.00000000       0.00000000       0.03180094 </v>
   </varray>
  </crystal>
  <varray name="positions" >
   <v>       0.18844173       0.51483125       0.17094480 </v>
   <v>       0.18844098       0.51483131       0.14658762 </v>
  </varray>
 </structure>
</modeling>
