Pt-vib                                  
           1
    11.214359    0.000000    0.000000
     5.607179    9.711920    0.000000
     0.000000    0.000000   31.445608
   H 
   2
Direct configuration=     1
   0.18844173  0.51483125  0.17094480
   0.18844098  0.51483131  0.14706463
Direct configuration=     2
   0.18977930  0.51483125  0.17094480
   0.18844098  0.51483131  0.14706463
Direct configuration=     3
   0.18710416  0.51483125  0.17094480
   0.18844098  0.51483131  0.14706463
Direct configuration=     4
   0.18766949  0.51637575  0.17094480
   0.18844098  0.51483131  0.14706463
Direct configuration=     5
   0.18921398  0.51328676  0.17094480
   0.18844098  0.51483131  0.14706463
Direct configuration=     6
   0.18844173  0.51483125  0.17142181
   0.18844098  0.51483131  0.14706463
Direct configuration=     7
   0.18844173  0.51483125  0.17046779
   0.18844098  0.51483131  0.14706463
Direct configuration=     8
   0.18844173  0.51483125  0.17094480
   0.18977855  0.51483131  0.14706463
Direct configuration=     9
   0.18844173  0.51483125  0.17094480
   0.18710341  0.51483131  0.14706463
Direct configuration=    10
   0.18844173  0.51483125  0.17094480
   0.18766873  0.51637580  0.14706463
Direct configuration=    11
   0.18844173  0.51483125  0.17094480
   0.18921322  0.51328681  0.14706463
Direct configuration=    12
   0.18844173  0.51483125  0.17094480
   0.18844098  0.51483131  0.14754165
Direct configuration=    13
   0.18844173  0.51483125  0.17094480
   0.18844098  0.51483131  0.14658762
