
     Program PWSCF v.6.7MaX starts on 12Jun2023 at 18:24: 1 

     This program is part of the open-source Quantum ESPRESSO suite
     for quantum simulation of materials; please cite
         "P. Giannozzi et al., J. Phys.:Condens. Matter 21 395502 (2009);
         "P. Giannozzi et al., J. Phys.:Condens. Matter 29 465901 (2017);
          URL http://www.quantum-espresso.org", 
     in publications or presentations arising from this work. More details at
     http://www.quantum-espresso.org/quote

     Parallel version (MPI), running on     6 processors

     MPI processes distributed on     1 nodes
     R & G space division:  proc/nbgrp/npool/nimage =       6
     Waiting for input...
     Reading input from standard input

     Current dimensions of program PWSCF are:
     Max number of different atomic species (ntypx) = 10
     Max number of k-points (npk) =  40000
     Max angular momentum in pseudopotentials (lmaxx) =  3
     file Al.pbe-n-kjpaw_psl.1.0.0.UPF: wavefunction(s)  3S 3P renormalized

     Subspace diagonalization in iterative solution of the eigenvalue problem:
     one sub-group per band group will be used
     scalapack distributed-memory algorithm (size of sub-group:  2*  2 procs)

     Found symmetry operation: I + ( -0.5000  0.0000  0.0000)
     This is a supercell, fractional translations are disabled
     Message from routine setup:
     using ibrav=0 with symmetry is DISCOURAGED, use correct ibrav instead

     Parallelization info
     --------------------
     sticks:   dense  smooth     PW     G-vecs:    dense   smooth      PW
     Min         324     159     46                33462    11815    1815
     Max         325     160     48                33471    11834    1818
     Sum        1945     955    283               200795    70915   10901



     bravais-lattice index     =            0
     lattice parameter (alat)  =      10.8235  a.u.
     unit-cell volume          =    3197.2246 (a.u.)^3
     number of atoms/cell      =           12
     number of atomic types    =            1
     number of electrons       =        36.00
     number of Kohn-Sham states=           22
     kinetic-energy cutoff     =      30.0000  Ry
     charge density cutoff     =     240.0000  Ry
     scf convergence threshold =      1.0E-04
     mixing beta               =       0.7000
     number of iterations used =            8  plain     mixing
     energy convergence thresh.=      1.0E-04
     force convergence thresh. =      1.0E-01
     Exchange-correlation= SLA  PW   PBX  PBC
                           (   1   4   3   4   0   0   0)
     nstep                     =           50


     celldm(1)=  10.823529  celldm(2)=   0.000000  celldm(3)=   0.000000
     celldm(4)=   0.000000  celldm(5)=   0.000000  celldm(6)=   0.000000

     crystal axes: (cart. coord. in units of alat)
               a(1) = (   1.000000   0.000000   0.000000 )  
               a(2) = (   0.500000   0.866025   0.000000 )  
               a(3) = (   0.000000   0.000000   2.911628 )  

     reciprocal axes: (cart. coord. in units 2 pi/alat)
               b(1) = (  1.000000 -0.577350  0.000000 )  
               b(2) = (  0.000000  1.154701  0.000000 )  
               b(3) = (  0.000000  0.000000  0.343450 )  


     PseudoPot. # 1 for Al read from file:
     /home/mini21k/QE/Potential/Al.pbe-n-kjpaw_psl.1.0.0.UPF
     MD5 check sum: cfc449ca30b5f3223ec38ddd88ac046d
     Pseudo is Projector augmented-wave + core cor, Zval =  3.0
     Generated using "atomic" code by A. Dal Corso  v.5.1
     Shape of augmentation charge: PSQ
     Using radial grid of 1135 points,  6 beta functions with: 
                l(1) =   0
                l(2) =   0
                l(3) =   1
                l(4) =   1
                l(5) =   2
                l(6) =   2
     Q(r) pseudized with 0 coefficients 


     atomic species   valence    mass     pseudopotential
        Al             3.00    26.98154     Al( 1.00)

      6 Sym. Ops. (no inversion) found



   Cartesian axes

     site n.     atom                  positions (alat units)
         1           Al  tau(   1) = (   0.2500000   0.1443376   0.0000000  )
         2           Al  tau(   2) = (   0.7500001   0.1443376   0.0000000  )
         3           Al  tau(   3) = (   0.4999999   0.5773502   0.0000000  )
         4           Al  tau(   4) = (   1.0000000   0.5773502   0.0000000  )
         5           Al  tau(   5) = (   0.0000000   0.2886752   0.4082484  )
         6           Al  tau(   6) = (   0.4999999   0.2886752   0.4082484  )
         7           Al  tau(   7) = (   0.2500000   0.7216878   0.4082484  )
         8           Al  tau(   8) = (   0.7500001   0.7216878   0.4082484  )
         9           Al  tau(   9) = (   0.0000000   0.0000000   0.8164965  )
        10           Al  tau(  10) = (   0.4999999   0.0000000   0.8164965  )
        11           Al  tau(  11) = (   0.2500000   0.4330126   0.8164965  )
        12           Al  tau(  12) = (   0.7500001   0.4330126   0.8164965  )

     number of k points=     3  Gaussian smearing, width (Ry)=  0.0030
                       cart. coord. in units 2pi/alat
        k(    1) = (   0.0000000   0.0000000   0.0000000), wk =   0.2222222
        k(    2) = (   0.0000000   0.3849002   0.0000000), wk =   1.3333333
        k(    3) = (   0.3333333  -0.5773503   0.0000000), wk =   0.4444444

     Dense  grid:   200795 G-vectors     FFT dimensions: (  54,  54, 160)

     Smooth grid:    70915 G-vectors     FFT dimensions: (  40,  40, 120)

     Estimated max dynamical RAM per process >     139.91 MB

     Estimated total dynamical RAM >     839.46 MB

     Initial potential from superposition of free atoms

     starting charge   35.97252, renormalised to   36.00000

     negative rho (up, down):  3.071E-05 0.000E+00
     Starting wfcs are   48 randomized atomic wfcs
     Checking if some PAW data can be deallocated... 

     total cpu time spent up to now is        1.4 secs

     Self-consistent Calculation

     iteration #  1     ecut=    30.00 Ry     beta= 0.70
     Davidson diagonalization with overlap
     ethr =  1.00E-02,  avg # of iterations =  4.0

     negative rho (up, down):  3.671E-07 0.000E+00

     total cpu time spent up to now is        3.1 secs

     total energy              =    -473.48253112 Ry
     estimated scf accuracy    <       0.58075015 Ry

     iteration #  2     ecut=    30.00 Ry     beta= 0.70
     Davidson diagonalization with overlap
     ethr =  1.61E-03,  avg # of iterations =  5.3

     negative rho (up, down):  3.783E-07 0.000E+00

     total cpu time spent up to now is        5.1 secs

     total energy              =    -472.97298415 Ry
     estimated scf accuracy    <       6.45624651 Ry

     iteration #  3     ecut=    30.00 Ry     beta= 0.70
     Davidson diagonalization with overlap
     ethr =  1.61E-03,  avg # of iterations =  5.0

     negative rho (up, down):  1.251E-06 0.000E+00

     total cpu time spent up to now is        6.9 secs

     total energy              =    -473.82517366 Ry
     estimated scf accuracy    <       0.01835998 Ry

     iteration #  4     ecut=    30.00 Ry     beta= 0.70
     Davidson diagonalization with overlap
     ethr =  5.10E-05,  avg # of iterations =  7.3

     negative rho (up, down):  1.607E-06 0.000E+00

     total cpu time spent up to now is        8.8 secs

     total energy              =    -473.82911702 Ry
     estimated scf accuracy    <       0.07458386 Ry

     iteration #  5     ecut=    30.00 Ry     beta= 0.70
     Davidson diagonalization with overlap
     ethr =  5.10E-05,  avg # of iterations =  3.3

     negative rho (up, down):  8.878E-06 0.000E+00

     total cpu time spent up to now is       10.5 secs

     total energy              =    -473.82919668 Ry
     estimated scf accuracy    <       0.03722225 Ry

     iteration #  6     ecut=    30.00 Ry     beta= 0.70
     Davidson diagonalization with overlap
     ethr =  5.10E-05,  avg # of iterations =  2.0

     negative rho (up, down):  1.024E-05 0.000E+00

     total cpu time spent up to now is       12.1 secs

     total energy              =    -473.83379945 Ry
     estimated scf accuracy    <       0.00212989 Ry

     iteration #  7     ecut=    30.00 Ry     beta= 0.70
     Davidson diagonalization with overlap
     ethr =  5.92E-06,  avg # of iterations =  4.3

     negative rho (up, down):  1.107E-05 0.000E+00

     total cpu time spent up to now is       13.6 secs

     total energy              =    -473.83381877 Ry
     estimated scf accuracy    <       0.00100088 Ry

     iteration #  8     ecut=    30.00 Ry     beta= 0.70
     Davidson diagonalization with overlap
     ethr =  2.78E-06,  avg # of iterations =  2.0

     negative rho (up, down):  1.177E-05 0.000E+00

     total cpu time spent up to now is       15.2 secs

     total energy              =    -473.83388664 Ry
     estimated scf accuracy    <       0.00014238 Ry

     iteration #  9     ecut=    30.00 Ry     beta= 0.70
     Davidson diagonalization with overlap
     ethr =  3.96E-07,  avg # of iterations =  5.0

     negative rho (up, down):  1.183E-05 0.000E+00

     total cpu time spent up to now is       17.0 secs

     End of self-consistent calculation

          k = 0.0000 0.0000 0.0000 (  8863 PWs)   bands (ev):

    -9.4643  -7.6789  -5.1158  -3.6287  -3.6287  -3.6284  -3.5607  -3.5607
    -3.5607  -2.1129  -2.1129  -2.1129  -1.9862  -1.5822  -1.5820  -1.5820
     0.6539   0.6541   0.6541   0.8567   0.8567   0.8568

          k = 0.0000 0.3849 0.0000 (  8868 PWs)   bands (ev):

    -8.7990  -7.0187  -6.8221  -5.0588  -4.8738  -4.8738  -4.4577  -3.1355
    -3.1355  -2.5237  -1.3580  -1.1985  -1.1984  -0.4772  -0.4770   0.4205
     0.7634   0.7634   0.9804   2.1224   2.2649   2.2653

          k = 0.3333-0.5774 0.0000 (  8862 PWs)   bands (ev):

    -7.4780  -7.4780  -7.4777  -5.7086  -5.7084  -5.7084  -3.1585  -3.1584
    -3.1583  -1.7421  -1.7420  -1.6165  -0.4853  -0.1111  -0.1110  -0.1110
     0.2828   0.2849   2.6658   2.6681   2.9969   3.1265

     the Fermi energy is     0.8020 ev

!    total energy              =    -473.83392889 Ry

     total all-electron energy =     -5827.547308 Ry
     estimated scf accuracy    <       0.00001829 Ry
     smearing contrib. (-TS)   =      -0.00101670 Ry
     internal energy E=F+TS    =    -473.83291219 Ry

     The total energy is F=E-TS. E is the sum of the following terms:
     one-electron contribution =    -251.28897998 Ry
     hartree contribution      =     135.69552056 Ry
     xc contribution           =     -30.42012732 Ry
     ewald contribution        =      88.32616342 Ry
     one-center paw contrib.   =    -416.14548887 Ry

     convergence has been achieved in   9 iterations

     negative rho (up, down):  1.183E-05 0.000E+00

     Forces acting on atoms (cartesian axes, Ry/au):

     atom    1 type  1   force =     0.00003532    0.00002039   -0.00115985
     atom    2 type  1   force =    -0.00003532    0.00002039   -0.00115985
     atom    3 type  1   force =     0.00000000   -0.00004078   -0.00115985
     atom    4 type  1   force =    -0.00000000   -0.00000000   -0.00116986
     atom    5 type  1   force =     0.00000000    0.00001312   -0.00005453
     atom    6 type  1   force =     0.00000000    0.00000000   -0.00006203
     atom    7 type  1   force =    -0.00001136   -0.00000656   -0.00005453
     atom    8 type  1   force =     0.00001136   -0.00000656   -0.00005453
     atom    9 type  1   force =     0.00000000    0.00000000    0.00122536
     atom   10 type  1   force =     0.00000000    0.00000530    0.00121655
     atom   11 type  1   force =     0.00000459   -0.00000265    0.00121655
     atom   12 type  1   force =    -0.00000459   -0.00000265    0.00121655

     Total force =     0.002440     Total SCF correction =     0.003861
     SCF correction compared to forces is large: reduce conv_thr to get better values

     BFGS Geometry Optimization
     Energy error            =      0.0E+00
     Gradient error          =      1.2E-03

     bfgs converged in   1 scf cycles and   0 bfgs steps
     (criteria: energy <  1.0E-04 Ry, force <  1.0E-01 Ry/Bohr)

     End of BFGS Geometry Optimization

     Final energy   =    -473.8339288919 Ry
Begin final coordinates

ATOMIC_POSITIONS (angstrom)
Al            1.4318910000        0.8267030000        0.0000000000    0   0   0
Al            4.2956740000        0.8267030000        0.0000000000    0   0   0
Al            2.8637820000        3.3068110000        0.0000000000    0   0   0
Al            5.7275650000        3.3068110000        0.0000000000    0   0   0
Al            0.0000000000        1.6534060000        2.3382690000
Al            2.8637820000        1.6534060000        2.3382690000
Al            1.4318910000        4.1335140000        2.3382690000
Al            4.2956740000        4.1335140000        2.3382690000
Al            0.0000000000        0.0000000000        4.6765370000
Al            2.8637820000        0.0000000000        4.6765370000
Al            1.4318910000        2.4801080000        4.6765370000
Al            4.2956740000        2.4801080000        4.6765370000
End final coordinates



     Writing output data file ./output/pwscf.save/

     init_run     :      1.29s CPU      1.37s WALL (       1 calls)
     electrons    :     14.82s CPU     15.59s WALL (       1 calls)
     forces       :      1.05s CPU      1.13s WALL (       1 calls)

     Called by init_run:
     wfcinit      :      0.41s CPU      0.41s WALL (       1 calls)
     potinit      :      0.39s CPU      0.40s WALL (       1 calls)
     hinit0       :      0.21s CPU      0.22s WALL (       1 calls)

     Called by electrons:
     c_bands      :      6.19s CPU      6.26s WALL (       9 calls)
     sum_band     :      3.54s CPU      3.87s WALL (       9 calls)
     v_of_rho     :      0.47s CPU      0.53s WALL (      10 calls)
     newd         :      2.49s CPU      2.86s WALL (      10 calls)
     PAW_pot      :      2.51s CPU      2.52s WALL (      10 calls)
     mix_rho      :      0.08s CPU      0.08s WALL (       9 calls)

     Called by c_bands:
     init_us_2    :      0.13s CPU      0.13s WALL (      60 calls)
     cegterg      :      5.79s CPU      5.86s WALL (      27 calls)

     Called by *egterg:
     cdiaghg      :      0.11s CPU      0.11s WALL (     142 calls)
     h_psi        :      3.59s CPU      3.66s WALL (     145 calls)
     s_psi        :      0.97s CPU      0.98s WALL (     145 calls)
     g_psi        :      0.01s CPU      0.01s WALL (     115 calls)

     Called by h_psi:
     h_psi:calbec :      1.30s CPU      1.34s WALL (     145 calls)
     vloc_psi     :      1.27s CPU      1.29s WALL (     145 calls)
     add_vuspsi   :      1.01s CPU      1.02s WALL (     145 calls)

     General routines
     calbec       :      1.89s CPU      1.93s WALL (     184 calls)
     fft          :      0.37s CPU      0.38s WALL (     139 calls)
     ffts         :      0.02s CPU      0.02s WALL (      19 calls)
     fftw         :      1.31s CPU      1.33s WALL (    4428 calls)
     interpolate  :      0.03s CPU      0.03s WALL (      10 calls)

     Parallel routines
     fft_scatt_xy :      0.19s CPU      0.19s WALL (    4586 calls)
     fft_scatt_yz :      0.76s CPU      0.77s WALL (    4586 calls)

     PWSCF        :     17.25s CPU     18.18s WALL


   This run was terminated on:  18:24:19  12Jun2023            

=------------------------------------------------------------------------------=
   JOB DONE.
=------------------------------------------------------------------------------=
