   67   67  200    1
  0.5111729E+02  0.1121440E-08  0.1121440E-08  0.3144560E-08  0.5000000E-15
  1.000000000000000E-004
  CAR 
 Pt                                      
    651     10    392
 
  0.0000000E+00  0.0000000E+00  0.0000000E+00  0.6250000E-01
    1      -24.630840   1.000000
    2      -11.065469   1.000000
    3      -10.174901   1.000000
    4       -9.016003   1.000000
    5       -8.527671   1.000000
    6       -8.492572   1.000000
    7       -8.405449   1.000000
    8       -8.402555   1.000000
    9       -8.399328   1.000000
   10       -8.384127   1.000000
   11       -8.238054   1.000000
   12       -8.163649   1.000000
   13       -7.707246   1.000000
   14       -7.657082   1.000000
   15       -7.593729   1.000000
   16       -7.547166   1.000000
   17       -7.420200   1.000000
   18       -7.416550   1.000000
   19       -7.404629   1.000000
   20       -7.347099   1.000000
   21       -7.346333   1.000000
   22       -7.346231   1.000000
   23       -7.345354   1.000000
   24       -7.267707   1.000000
   25       -7.258589   1.000000
   26       -7.249799   1.000000
   27       -7.242614   1.000000
   28       -7.070617   1.000000
   29       -6.819244   1.000000
   30       -6.816349   1.000000
   31       -6.803190   1.000000
   32       -6.600902   1.000000
   33       -6.596674   1.000000
   34       -6.586902   1.000000
   35       -6.582297   1.000000
   36       -6.578739   1.000000
   37       -6.570817   1.000000
   38       -6.564026   1.000000
   39       -6.562458   1.000000
   40       -6.561927   1.000000
   41       -6.550734   1.000000
   42       -6.546954   1.000000
   43       -6.536182   1.000000
   44       -6.528970   1.000000
   45       -6.525748   1.000000
   46       -6.508290   1.000000
   47       -6.499547   1.000000
   48       -6.494474   1.000000
   49       -6.429280   1.000000
   50       -6.408315   1.000000
   51       -6.400860   1.000000
   52       -6.395234   1.000000
   53       -6.379384   1.000000
   54       -6.361925   1.000000
   55       -6.339854   1.000000
   56       -6.238676   1.000000
   57       -6.232196   1.000000
   58       -6.231804   1.000000
   59       -6.227228   1.000000
   60       -6.209122   1.000000
   61       -6.101865   1.000000
   62       -6.095470   1.000000
   63       -6.089881   1.000000
   64       -6.080779   1.000000
   65       -6.079211   1.000000
   66       -6.062317   1.000000
   67       -5.875799   1.000000
   68       -5.754318   1.000000
   69       -5.749260   1.000000
   70       -5.745361   1.000000
   71       -5.743467   1.000000
   72       -5.739837   1.000000
   73       -5.711622   1.000000
   74       -5.698082   1.000000
   75       -5.696665   1.000000
   76       -5.610312   1.000000
   77       -5.608981   1.000000
   78       -5.608509   1.000000
   79       -5.594917   1.000000
   80       -5.590405   1.000000
   81       -5.585327   1.000000
   82       -5.583063   1.000000
   83       -5.579209   1.000000
   84       -5.569642   1.000000
   85       -5.543666   1.000000
   86       -5.541692   1.000000
   87       -5.532368   1.000000
   88       -5.449484   1.000000
   89       -5.221310   1.000000
   90       -5.215888   1.000000
   91       -5.207818   1.000000
   92       -5.201897   1.000000
   93       -5.191725   1.000000
   94       -5.159607   1.000000
   95       -5.154098   1.000000
   96       -5.141638   1.000000
   97       -5.128938   1.000000
   98       -5.128786   1.000000
   99       -5.126475   1.000000
  100       -5.119994   1.000000
  101       -5.113970   1.000000
  102       -5.113031   1.000000
  103       -5.106645   1.000000
  104       -5.102965   1.000000
  105       -5.088758   1.000000
  106       -5.033933   1.000000
  107       -4.982169   1.000000
  108       -4.979140   1.000000
  109       -4.967612   1.000000
  110       -4.958940   1.000000
  111       -4.953822   1.000000
  112       -4.942960   1.000000
  113       -4.789310   1.000000
  114       -4.775370   1.000000
  115       -4.744892   1.000000
  116       -4.725481   1.000000
  117       -4.718748   1.000000
  118       -4.705348   1.000000
  119       -4.703652   1.000000
  120       -4.699672   1.000000
  121       -4.602340   1.000000
  122       -4.574599   1.000000
  123       -4.567221   1.000000
  124       -4.565580   1.000000
  125       -4.561316   1.000000
  126       -4.554920   1.000000
  127       -4.546632   1.000000
  128       -4.540038   1.000000
  129       -4.526272   1.000000
  130       -4.519032   1.000000
  131       -4.510602   1.000000
  132       -4.424555   1.000000
  133       -4.420583   1.000000
  134       -4.391586   1.000000
  135       -4.390828   1.000000
  136       -4.388686   1.000000
  137       -4.376982   1.000000
  138       -4.362356   1.000000
  139       -4.356443   1.000000
  140       -4.333786   1.000000
  141       -4.265551   1.000000
  142       -4.262914   1.000000
  143       -4.224800   1.000000
  144       -4.218550   1.000000
  145       -4.209162   1.000000
  146       -4.196604   1.000000
  147       -4.171455   1.000000
  148       -4.162665   1.000000
  149       -4.136416   1.000000
  150       -4.121460   1.000000
  151       -4.108137   1.000000
  152       -4.060803   1.000000
  153       -4.035141   1.000000
  154       -4.010193   1.000000
  155       -3.994938   1.000000
  156       -3.971796   1.000000
  157       -3.968319   1.000000
  158       -3.956661   1.000000
  159       -3.945663   1.000000
  160       -3.943361   1.000000
  161       -3.922233   1.000000
  162       -3.907718   1.000000
  163       -3.895339   1.000000
  164       -3.890549   1.000000
  165       -3.876503   1.000000
  166       -3.875026   1.000000
  167       -3.815757   1.000000
  168       -3.809716   1.000000
  169       -3.801815   1.000000
  170       -3.798332   1.000000
  171       -3.797459   1.000000
  172       -3.793310   1.000000
  173       -3.787790   1.000000
  174       -3.785714   1.000000
  175       -3.781036   1.000000
  176       -3.778231   1.000000
  177       -3.774167   1.000000
  178       -3.771572   1.000000
  179       -3.769501   1.000000
  180       -3.764958   1.000000
  181       -3.755945   1.000000
  182       -3.737705   1.000000
  183       -3.730470   1.000000
  184       -3.727620   1.000000
  185       -3.698561   1.000000
  186       -3.693347   1.000000
  187       -3.654882   1.000000
  188       -3.633050   1.000000
  189       -3.629874   1.000000
  190       -3.627728   1.000000
  191       -3.618147   1.000000
  192       -3.614925   1.000000
  193       -3.607392   1.000000
  194       -3.587046   1.000000
  195       -3.584577   1.000000
  196       -3.556761   1.000000
  197       -3.513465   1.000000
  198       -3.489338   1.000000
  199       -3.487012   1.000000
  200       -3.478482   1.000000
  201       -3.472785   1.000000
  202       -3.468986   1.000000
  203       -3.463294   1.000000
  204       -3.454766   1.000000
  205       -3.439675   1.000000
  206       -3.375140   1.000000
  207       -3.129382   1.000000
  208       -3.122357   1.000000
  209       -3.098040   1.000000
  210       -3.089440   1.000000
  211       -3.086166   1.000000
  212       -3.074279   1.000000
  213       -3.061744   1.000000
  214       -3.052087   1.000000
  215       -3.006802   1.000000
  216       -3.006108   1.000000
  217       -2.998752   1.000000
  218       -2.982901   1.000000
  219       -2.979152   1.000000
  220       -2.973277   1.000000
  221       -2.971166   1.000000
  222       -2.926769   1.000000
  223       -2.925115   1.000000
  224       -2.897159   1.000000
  225       -2.856883   1.000000
  226       -2.852251   1.000000
  227       -2.835551   1.000000
  228       -2.832386   1.000000
  229       -2.820555   1.000000
  230       -2.808894   1.000000
  231       -2.740839   1.000000
  232       -2.737641   1.000000
  233       -2.715067   1.000000
  234       -2.711037   1.000000
  235       -2.705369   1.000000
  236       -2.591551   1.000000
  237       -2.583277   1.000000
  238       -2.550978   1.000000
  239       -2.540296   1.000000
  240       -2.498049   1.000000
  241       -2.494389   1.000000
  242       -2.467932   1.000000
  243       -2.464638   1.000000
  244       -2.452816   1.000000
  245       -2.388380   1.000000
  246       -2.373789   1.000000
  247       -2.364962   1.000000
  248       -2.360588   1.000000
  249       -2.357474   1.000000
  250       -2.347801   1.000000
  251       -2.326409   1.000000
  252       -2.325096   1.000000
  253       -2.315786   1.000000
  254       -2.309420   1.000000
  255       -2.306977   1.000000
  256       -2.298529   1.000000
  257       -2.266734   1.000000
  258       -2.244439   1.000000
  259       -2.237582   1.000000
  260       -2.188586   1.000000
  261       -2.178014   1.000000
  262       -2.165893   1.000000
  263       -2.144430   1.000000
  264       -2.106640   1.000000
  265       -2.097629   1.000000
  266       -2.086828   1.000000
  267       -2.079910   1.000000
  268       -2.074046   1.000000
  269       -2.069634   1.000000
  270       -2.068386   1.000000
  271       -2.038705   1.000000
  272       -2.036413   1.000000
  273       -2.030293   1.000000
  274       -2.026276   1.000000
  275       -2.019874   1.000000
  276       -1.940533   1.000000
  277       -1.937883   1.000000
  278       -1.906868   1.000000
  279       -1.903371   1.000000
  280       -1.893845   1.000000
  281       -1.890088   1.000000
  282       -1.845314   1.000000
  283       -1.842386   1.000000
  284       -1.793232   1.000000
  285       -1.769617   1.000000
  286       -1.633985   1.000000
  287       -1.624703   1.000000
  288       -1.575612   1.000000
  289       -1.501640   1.000000
  290       -1.492715   1.000000
  291       -1.428704   1.000000
  292       -1.421287   1.000000
  293       -1.405975   1.000000
  294       -1.393853   1.000000
  295       -1.386960   1.000000
  296       -1.378409   1.000000
  297       -1.376889   1.000000
  298       -1.212031   1.000028
  299       -1.208638   1.000034
  300       -1.196483   1.000069
  301       -1.190115   1.000099
  302       -1.178904   1.000183
  303       -1.147057   1.000887
  304       -1.116358   1.003265
  305       -1.104171   1.005140
  306       -1.022741   1.034339
  307       -1.019947   1.034900
  308       -0.995412   1.028973
  309       -0.950041   0.914802
  310       -0.933649   0.825932
  311       -0.921143   0.741331
  312       -0.865571   0.290896
  313       -0.862164   0.265473
  314       -0.853515   0.204886
  315       -0.849964   0.181832
  316       -0.843436   0.142499
  317       -0.837226   0.108923
  318       -0.835293   0.099256
  319       -0.831265   0.080330
  320       -0.820568   0.037982
  321       -0.812254   0.012730
  322       -0.805294  -0.003627
  323       -0.795191  -0.020459
  324       -0.790388  -0.025938
  325       -0.786279  -0.029500
  326       -0.785213  -0.030268
  327       -0.693759  -0.008679
  328       -0.630433  -0.000707
  329       -0.628850  -0.000656
  330       -0.624499  -0.000532
  331       -0.611634  -0.000280
  332       -0.603211  -0.000180
  333       -0.598971  -0.000143
  334       -0.593465  -0.000106
  335       -0.589063  -0.000083
  336       -0.586373  -0.000071
  337       -0.583884  -0.000062
  338       -0.581034  -0.000052
  339       -0.579783  -0.000049
  340       -0.572840  -0.000032
  341       -0.444839  -0.000000
  342       -0.440601  -0.000000
  343       -0.392246  -0.000000
  344       -0.358953  -0.000000
  345       -0.357804  -0.000000
  346       -0.356709  -0.000000
  347       -0.349777  -0.000000
  348        0.005473  -0.000000
  349        0.031540  -0.000000
  350        0.037623  -0.000000
  351        0.367619  -0.000000
  352        0.964409  -0.000000
  353        1.041583  -0.000000
  354        1.043054  -0.000000
  355        1.069237  -0.000000
  356        1.077874  -0.000000
  357        1.084064  -0.000000
  358        1.138443  -0.000000
  359        1.241354  -0.000000
  360        1.255687  -0.000000
  361        1.419358  -0.000000
  362        1.449372  -0.000000
  363        1.474075  -0.000000
  364        1.485780  -0.000000
  365        1.500825  -0.000000
  366        1.548935  -0.000000
  367        1.552178  -0.000000
  368        1.557852  -0.000000
  369        1.565310  -0.000000
  370        1.568612  -0.000000
  371        1.572055  -0.000000
  372        1.782257  -0.000000
  373        1.814406  -0.000000
  374        1.823093  -0.000000
  375        2.017090   0.000000
  376        2.053616   0.000000
  377        2.057474   0.000000
  378        2.165925   0.000000
  379        2.459996   0.000000
  380        2.497054   0.000000
  381        2.624570   0.000000
  382        2.688686   0.000000
  383        2.717421   0.000000
  384        2.922774   0.000000
  385        3.108250   0.000000
  386        3.119615   0.000000
  387        3.586766   0.000000
  388        3.783297   0.000000
  389        3.791223   0.000000
  390        3.811338   0.000000
  391        3.821746   0.000000
  392        4.100498   0.000000
 
  0.2500000E+00  0.4280917E-16  0.0000000E+00  0.1250000E+00
    1      -24.630707   1.000000
    2      -11.063466   1.000000
    3      -10.045264   1.000000
    4       -9.096841   1.000000
    5       -8.901250   1.000000
    6       -8.663631   1.000000
    7       -8.647734   1.000000
    8       -8.406623   1.000000
    9       -8.268238   1.000000
   10       -7.980700   1.000000
   11       -7.939131   1.000000
   12       -7.805690   1.000000
   13       -7.779044   1.000000
   14       -7.624146   1.000000
   15       -7.593908   1.000000
   16       -7.573331   1.000000
   17       -7.515352   1.000000
   18       -7.489047   1.000000
   19       -7.418314   1.000000
   20       -7.333465   1.000000
   21       -7.326377   1.000000
   22       -7.233239   1.000000
   23       -7.209684   1.000000
   24       -7.157240   1.000000
   25       -7.155437   1.000000
   26       -7.100813   1.000000
   27       -7.098812   1.000000
   28       -7.006847   1.000000
   29       -6.911645   1.000000
   30       -6.895619   1.000000
   31       -6.781149   1.000000
   32       -6.763492   1.000000
   33       -6.751431   1.000000
   34       -6.740314   1.000000
   35       -6.723700   1.000000
   36       -6.713273   1.000000
   37       -6.665596   1.000000
   38       -6.601389   1.000000
   39       -6.597678   1.000000
   40       -6.591118   1.000000
   41       -6.574918   1.000000
   42       -6.554922   1.000000
   43       -6.550652   1.000000
   44       -6.532495   1.000000
   45       -6.498463   1.000000
   46       -6.495733   1.000000
   47       -6.471504   1.000000
   48       -6.467248   1.000000
   49       -6.437858   1.000000
   50       -6.426563   1.000000
   51       -6.411122   1.000000
   52       -6.401765   1.000000
   53       -6.382734   1.000000
   54       -6.351853   1.000000
   55       -6.347018   1.000000
   56       -6.334603   1.000000
   57       -6.321118   1.000000
   58       -6.252333   1.000000
   59       -6.190071   1.000000
   60       -6.184132   1.000000
   61       -6.157846   1.000000
   62       -6.140807   1.000000
   63       -6.115110   1.000000
   64       -6.100883   1.000000
   65       -6.067915   1.000000
   66       -5.969115   1.000000
   67       -5.966426   1.000000
   68       -5.962455   1.000000
   69       -5.947975   1.000000
   70       -5.917531   1.000000
   71       -5.905551   1.000000
   72       -5.877912   1.000000
   73       -5.868133   1.000000
   74       -5.770606   1.000000
   75       -5.663391   1.000000
   76       -5.658552   1.000000
   77       -5.650777   1.000000
   78       -5.650195   1.000000
   79       -5.613781   1.000000
   80       -5.592506   1.000000
   81       -5.554109   1.000000
   82       -5.513245   1.000000
   83       -5.502910   1.000000
   84       -5.495657   1.000000
   85       -5.459610   1.000000
   86       -5.455694   1.000000
   87       -5.416797   1.000000
   88       -5.366145   1.000000
   89       -5.337598   1.000000
   90       -5.326238   1.000000
   91       -5.315550   1.000000
   92       -5.305321   1.000000
   93       -5.266719   1.000000
   94       -5.252616   1.000000
   95       -5.238606   1.000000
   96       -5.232578   1.000000
   97       -5.186897   1.000000
   98       -5.180243   1.000000
   99       -5.144056   1.000000
  100       -5.126777   1.000000
  101       -5.091663   1.000000
  102       -5.087672   1.000000
  103       -5.060439   1.000000
  104       -5.056595   1.000000
  105       -5.041997   1.000000
  106       -5.035640   1.000000
  107       -4.993198   1.000000
  108       -4.943874   1.000000
  109       -4.942421   1.000000
  110       -4.923212   1.000000
  111       -4.884919   1.000000
  112       -4.809213   1.000000
  113       -4.783517   1.000000
  114       -4.758117   1.000000
  115       -4.753081   1.000000
  116       -4.716035   1.000000
  117       -4.651980   1.000000
  118       -4.647893   1.000000
  119       -4.630395   1.000000
  120       -4.597125   1.000000
  121       -4.580429   1.000000
  122       -4.575031   1.000000
  123       -4.564096   1.000000
  124       -4.554562   1.000000
  125       -4.544245   1.000000
  126       -4.541737   1.000000
  127       -4.523338   1.000000
  128       -4.521760   1.000000
  129       -4.510618   1.000000
  130       -4.504216   1.000000
  131       -4.479161   1.000000
  132       -4.474047   1.000000
  133       -4.446993   1.000000
  134       -4.429478   1.000000
  135       -4.424554   1.000000
  136       -4.385914   1.000000
  137       -4.358561   1.000000
  138       -4.354322   1.000000
  139       -4.342391   1.000000
  140       -4.339813   1.000000
  141       -4.275505   1.000000
  142       -4.269874   1.000000
  143       -4.221801   1.000000
  144       -4.214333   1.000000
  145       -4.191194   1.000000
  146       -4.186846   1.000000
  147       -4.171531   1.000000
  148       -4.145865   1.000000
  149       -4.139493   1.000000
  150       -4.118337   1.000000
  151       -4.112231   1.000000
  152       -4.099619   1.000000
  153       -4.093409   1.000000
  154       -4.080412   1.000000
  155       -4.073000   1.000000
  156       -4.029224   1.000000
  157       -4.017801   1.000000
  158       -3.989471   1.000000
  159       -3.982741   1.000000
  160       -3.960633   1.000000
  161       -3.958522   1.000000
  162       -3.947715   1.000000
  163       -3.938837   1.000000
  164       -3.926565   1.000000
  165       -3.889469   1.000000
  166       -3.886701   1.000000
  167       -3.871166   1.000000
  168       -3.865980   1.000000
  169       -3.845693   1.000000
  170       -3.840257   1.000000
  171       -3.822312   1.000000
  172       -3.806156   1.000000
  173       -3.802764   1.000000
  174       -3.786249   1.000000
  175       -3.768475   1.000000
  176       -3.738309   1.000000
  177       -3.736272   1.000000
  178       -3.721270   1.000000
  179       -3.709079   1.000000
  180       -3.699711   1.000000
  181       -3.692138   1.000000
  182       -3.680217   1.000000
  183       -3.668007   1.000000
  184       -3.645714   1.000000
  185       -3.634279   1.000000
  186       -3.615523   1.000000
  187       -3.598232   1.000000
  188       -3.596633   1.000000
  189       -3.585365   1.000000
  190       -3.584082   1.000000
  191       -3.567016   1.000000
  192       -3.554842   1.000000
  193       -3.540823   1.000000
  194       -3.527346   1.000000
  195       -3.484481   1.000000
  196       -3.477054   1.000000
  197       -3.429970   1.000000
  198       -3.428491   1.000000
  199       -3.411205   1.000000
  200       -3.408981   1.000000
  201       -3.346130   1.000000
  202       -3.323608   1.000000
  203       -3.297890   1.000000
  204       -3.292688   1.000000
  205       -3.266031   1.000000
  206       -3.236933   1.000000
  207       -3.229289   1.000000
  208       -3.197478   1.000000
  209       -3.180118   1.000000
  210       -3.176827   1.000000
  211       -3.129499   1.000000
  212       -3.102063   1.000000
  213       -3.068831   1.000000
  214       -3.037957   1.000000
  215       -3.035992   1.000000
  216       -2.997687   1.000000
  217       -2.980314   1.000000
  218       -2.975520   1.000000
  219       -2.962439   1.000000
  220       -2.945892   1.000000
  221       -2.931580   1.000000
  222       -2.922231   1.000000
  223       -2.909558   1.000000
  224       -2.908389   1.000000
  225       -2.891805   1.000000
  226       -2.874014   1.000000
  227       -2.857212   1.000000
  228       -2.824542   1.000000
  229       -2.810360   1.000000
  230       -2.796422   1.000000
  231       -2.760040   1.000000
  232       -2.687301   1.000000
  233       -2.655649   1.000000
  234       -2.638456   1.000000
  235       -2.607003   1.000000
  236       -2.589403   1.000000
  237       -2.507418   1.000000
  238       -2.500596   1.000000
  239       -2.466978   1.000000
  240       -2.458256   1.000000
  241       -2.444369   1.000000
  242       -2.440666   1.000000
  243       -2.422123   1.000000
  244       -2.419766   1.000000
  245       -2.395724   1.000000
  246       -2.386447   1.000000
  247       -2.331950   1.000000
  248       -2.312420   1.000000
  249       -2.285809   1.000000
  250       -2.262303   1.000000
  251       -2.257931   1.000000
  252       -2.237566   1.000000
  253       -2.236332   1.000000
  254       -2.226074   1.000000
  255       -2.179366   1.000000
  256       -2.122503   1.000000
  257       -2.102483   1.000000
  258       -2.088095   1.000000
  259       -2.078199   1.000000
  260       -2.064785   1.000000
  261       -2.055726   1.000000
  262       -2.050256   1.000000
  263       -2.035792   1.000000
  264       -2.031112   1.000000
  265       -2.015583   1.000000
  266       -2.012038   1.000000
  267       -1.977110   1.000000
  268       -1.962994   1.000000
  269       -1.941403   1.000000
  270       -1.934203   1.000000
  271       -1.909864   1.000000
  272       -1.903896   1.000000
  273       -1.892086   1.000000
  274       -1.886234   1.000000
  275       -1.871319   1.000000
  276       -1.853012   1.000000
  277       -1.829580   1.000000
  278       -1.807501   1.000000
  279       -1.793101   1.000000
  280       -1.790784   1.000000
  281       -1.777642   1.000000
  282       -1.772290   1.000000
  283       -1.754029   1.000000
  284       -1.734734   1.000000
  285       -1.640645   1.000000
  286       -1.629987   1.000000
  287       -1.608620   1.000000
  288       -1.581487   1.000000
  289       -1.570377   1.000000
  290       -1.528918   1.000000
  291       -1.492181   1.000000
  292       -1.490737   1.000000
  293       -1.478958   1.000000
  294       -1.452076   1.000000
  295       -1.414296   1.000000
  296       -1.398374   1.000000
  297       -1.395761   1.000000
  298       -1.372940   1.000000
  299       -1.348566   1.000000
  300       -1.313481   1.000000
  301       -1.261327   1.000001
  302       -1.234160   1.000007
  303       -1.188562   1.000108
  304       -1.184191   1.000137
  305       -1.169660   1.000296
  306       -1.138656   1.001296
  307       -1.112421   1.003796
  308       -1.102617   1.005431
  309       -1.070435   1.014723
  310       -1.055413   1.021125
  311       -1.009329   1.035151
  312       -1.005934   1.034437
  313       -0.994144   1.027930
  314       -0.981837   1.012506
  315       -0.975492   1.000253
  316       -0.957863   0.947726
  317       -0.948324   0.906747
  318       -0.936369   0.842496
  319       -0.928178   0.790560
  320       -0.916052   0.703380
  321       -0.895501   0.536468
  322       -0.887495   0.468774
  323       -0.858757   0.240895
  324       -0.850062   0.182454
  325       -0.841351   0.130799
  326       -0.830120   0.075252
  327       -0.820622   0.038168
  328       -0.800856  -0.011968
  329       -0.738831  -0.026589
  330       -0.729225  -0.022160
  331       -0.722162  -0.018974
  332       -0.715795  -0.016263
  333       -0.714100  -0.015576
  334       -0.704544  -0.012011
  335       -0.698949  -0.010190
  336       -0.675526  -0.004667
  337       -0.642073  -0.001205
  338       -0.638861  -0.001043
  339       -0.604843  -0.000196
  340       -0.596421  -0.000125
  341       -0.577136  -0.000042
  342       -0.562529  -0.000017
  343       -0.538205  -0.000004
  344       -0.503593  -0.000000
  345       -0.415057  -0.000000
  346       -0.258819  -0.000000
  347       -0.195085  -0.000000
  348        0.052874  -0.000000
  349        0.062312  -0.000000
  350        0.104137  -0.000000
  351        0.225961  -0.000000
  352        0.261668  -0.000000
  353        0.294451  -0.000000
  354        0.469159  -0.000000
  355        0.476063  -0.000000
  356        0.540608  -0.000000
  357        0.899330  -0.000000
  358        0.996120  -0.000000
  359        1.021788  -0.000000
  360        1.055890  -0.000000
  361        1.170665  -0.000000
  362        1.223342  -0.000000
  363        1.271421  -0.000000
  364        1.333223  -0.000000
  365        1.358157  -0.000000
  366        1.450739  -0.000000
  367        1.472120  -0.000000
  368        1.546187  -0.000000
  369        1.749177  -0.000000
  370        1.765752  -0.000000
  371        1.862704   0.000000
  372        1.989419   0.000000
  373        2.098595   0.000000
  374        2.134398   0.000000
  375        2.260387   0.000000
  376        2.405724   0.000000
  377        2.452565   0.000000
  378        2.580610   0.000000
  379        2.800156   0.000000
  380        2.804026   0.000000
  381        2.960425   0.000000
  382        2.981437   0.000000
  383        3.095907   0.000000
  384        3.153998   0.000000
  385        3.277304   0.000000
  386        3.361016   0.000000
  387        3.386196   0.000000
  388        3.429247   0.000000
  389        3.749203   0.000000
  390        4.138883   0.000000
  391        4.180576   0.000000
  392        4.425041   0.000000
 
  0.5000000E+00  0.8561833E-16  0.0000000E+00  0.6250000E-01
    1      -24.630728   1.000000
    2      -11.061598   1.000000
    3       -9.691427   1.000000
    4       -9.641848   1.000000
    5       -8.825264   1.000000
    6       -8.734058   1.000000
    7       -8.619637   1.000000
    8       -8.468862   1.000000
    9       -8.274438   1.000000
   10       -8.026706   1.000000
   11       -7.626949   1.000000
   12       -7.599397   1.000000
   13       -7.531235   1.000000
   14       -7.511483   1.000000
   15       -7.482047   1.000000
   16       -7.468461   1.000000
   17       -7.461405   1.000000
   18       -7.437037   1.000000
   19       -7.421487   1.000000
   20       -7.409673   1.000000
   21       -7.259120   1.000000
   22       -7.214287   1.000000
   23       -7.193638   1.000000
   24       -7.127107   1.000000
   25       -7.110325   1.000000
   26       -7.100191   1.000000
   27       -7.081294   1.000000
   28       -7.057042   1.000000
   29       -7.042472   1.000000
   30       -6.940883   1.000000
   31       -6.907938   1.000000
   32       -6.903152   1.000000
   33       -6.888625   1.000000
   34       -6.885870   1.000000
   35       -6.799263   1.000000
   36       -6.785163   1.000000
   37       -6.781146   1.000000
   38       -6.740086   1.000000
   39       -6.637701   1.000000
   40       -6.614149   1.000000
   41       -6.552086   1.000000
   42       -6.550948   1.000000
   43       -6.531126   1.000000
   44       -6.530764   1.000000
   45       -6.518104   1.000000
   46       -6.493091   1.000000
   47       -6.464082   1.000000
   48       -6.425045   1.000000
   49       -6.419723   1.000000
   50       -6.406315   1.000000
   51       -6.385038   1.000000
   52       -6.340437   1.000000
   53       -6.328264   1.000000
   54       -6.302508   1.000000
   55       -6.298439   1.000000
   56       -6.283516   1.000000
   57       -6.276461   1.000000
   58       -6.273310   1.000000
   59       -6.262777   1.000000
   60       -6.251426   1.000000
   61       -6.244890   1.000000
   62       -6.210716   1.000000
   63       -6.202732   1.000000
   64       -6.120497   1.000000
   65       -6.079378   1.000000
   66       -6.073063   1.000000
   67       -6.066119   1.000000
   68       -6.046794   1.000000
   69       -6.044947   1.000000
   70       -6.029659   1.000000
   71       -6.027719   1.000000
   72       -5.898169   1.000000
   73       -5.882442   1.000000
   74       -5.779168   1.000000
   75       -5.681711   1.000000
   76       -5.668851   1.000000
   77       -5.662144   1.000000
   78       -5.622180   1.000000
   79       -5.615260   1.000000
   80       -5.614989   1.000000
   81       -5.597658   1.000000
   82       -5.581429   1.000000
   83       -5.568134   1.000000
   84       -5.557612   1.000000
   85       -5.544362   1.000000
   86       -5.524949   1.000000
   87       -5.509936   1.000000
   88       -5.409937   1.000000
   89       -5.360921   1.000000
   90       -5.348694   1.000000
   91       -5.320492   1.000000
   92       -5.306234   1.000000
   93       -5.285128   1.000000
   94       -5.269105   1.000000
   95       -5.252076   1.000000
   96       -5.236356   1.000000
   97       -5.218532   1.000000
   98       -5.174192   1.000000
   99       -5.151046   1.000000
  100       -5.113428   1.000000
  101       -5.088004   1.000000
  102       -5.075116   1.000000
  103       -5.005335   1.000000
  104       -4.990140   1.000000
  105       -4.984268   1.000000
  106       -4.973148   1.000000
  107       -4.961590   1.000000
  108       -4.931854   1.000000
  109       -4.928006   1.000000
  110       -4.925732   1.000000
  111       -4.903281   1.000000
  112       -4.870839   1.000000
  113       -4.759587   1.000000