 running on   64 total cores
 distrk:  each k-point on   64 cores,    1 groups
 distr:  one band on    8 cores,    8 groups
 using from now: INCAR     
 vasp.5.4.4.18Apr17-6-g9f103f2a35 (build May 23 2022 10:35:18) complex          
  
 POSCAR found type information on POSCAR  Pt O  C  H 
 POSCAR found :  4 types and      67 ions
 scaLAPACK will be used
 LDA part: xc-table for Pade appr. of Perdew
 POSCAR found type information on POSCAR  Pt O  C  H 
 POSCAR found :  4 types and      67 ions
 POSCAR, INCAR and KPOINTS ok, starting setup
 FFT: planning ...
 WAVECAR not read
 entering main loop
       N       E                     dE             d eps       ncg     rms          rms(c)
DAV:   1     0.425404058044E+04    0.42540E+04   -0.23773E+05  7928   0.112E+03
DAV:   2    -0.273440979283E+02   -0.42814E+04   -0.39454E+04  9856   0.255E+02
DAV:   3    -0.397810976889E+03   -0.37047E+03   -0.33907E+03  9056   0.722E+01
DAV:   4    -0.415639137852E+03   -0.17828E+02   -0.16457E+02 10408   0.141E+01
DAV:   5    -0.416172157840E+03   -0.53302E+00   -0.52529E+00  9872   0.254E+00    0.823E+01
RMM:   6    -0.404843620093E+03    0.11329E+02   -0.79663E+01  7874   0.140E+01    0.626E+01
RMM:   7    -0.502272477026E+03   -0.97429E+02   -0.17606E+02  7876   0.148E+01    0.824E+01
RMM:   8    -0.455050558031E+03    0.47222E+02   -0.73974E+01  7868   0.103E+01    0.637E+01
RMM:   9    -0.418642568295E+03    0.36408E+02   -0.54801E+01  7863   0.877E+00    0.434E+01
RMM:  10    -0.426882325186E+03   -0.82398E+01   -0.46215E+01  7856   0.789E+00    0.513E+01
RMM:  11    -0.396610516713E+03    0.30272E+02   -0.81619E+00  7869   0.367E+00    0.259E+01
RMM:  12    -0.393722413212E+03    0.28881E+01   -0.47378E+00  7875   0.268E+00    0.217E+01
RMM:  13    -0.391569778555E+03    0.21526E+01   -0.30267E+00  7876   0.205E+00    0.155E+01
RMM:  14    -0.389798554597E+03    0.17712E+01   -0.12551E+00  7874   0.138E+00    0.658E+00
RMM:  15    -0.389910551295E+03   -0.11200E+00   -0.46522E-01  7889   0.803E-01    0.686E+00
RMM:  16    -0.389843703476E+03    0.66848E-01   -0.12139E-01  7954   0.418E-01    0.626E+00
RMM:  17    -0.389664450232E+03    0.17925E+00   -0.69616E-02  7876   0.335E-01    0.435E+00
RMM:  18    -0.389537563428E+03    0.12689E+00   -0.12487E-01  7884   0.434E-01    0.250E+00
RMM:  19    -0.389504948346E+03    0.32615E-01   -0.53344E-02  7876   0.288E-01    0.160E+00
RMM:  20    -0.389506618174E+03   -0.16698E-02   -0.99888E-03  7883   0.124E-01    0.151E+00
RMM:  21    -0.389505151616E+03    0.14666E-02   -0.38121E-03  7891   0.754E-02    0.151E+00
RMM:  22    -0.389497638213E+03    0.75134E-02   -0.39699E-03  7877   0.757E-02    0.136E+00
RMM:  23    -0.389488995164E+03    0.86430E-02   -0.35284E-03  7880   0.680E-02    0.101E+00
RMM:  24    -0.389483935636E+03    0.50595E-02   -0.15983E-03  7944   0.450E-02    0.704E-01
RMM:  25    -0.389481421242E+03    0.25144E-02   -0.10622E-03  7877   0.390E-02    0.538E-01
RMM:  26    -0.389479595875E+03    0.18254E-02   -0.97005E-04  7872   0.369E-02    0.355E-01
RMM:  27    -0.389479067981E+03    0.52789E-03   -0.31790E-04  7956   0.206E-02    0.239E-01
RMM:  28    -0.389478960173E+03    0.10781E-03   -0.16423E-04  7944   0.146E-02    0.205E-01
RMM:  29    -0.389478882687E+03    0.77486E-04   -0.10715E-04  7759   0.116E-02    0.164E-01
RMM:  30    -0.389478815409E+03    0.67278E-04   -0.74934E-05  7087   0.101E-02    0.711E-02
RMM:  31    -0.389478884290E+03   -0.68881E-04   -0.32570E-05  5068   0.692E-03    0.517E-02
RMM:  32    -0.389478953667E+03   -0.69377E-04   -0.14472E-05  4396   0.479E-03    0.485E-02
RMM:  33    -0.389479078515E+03   -0.12485E-03   -0.13118E-05  4393   0.463E-03    0.216E-02
RMM:  34    -0.389479140963E+03   -0.62447E-04   -0.52815E-06  4287   0.278E-03    0.176E-02
RMM:  35    -0.389479236552E+03   -0.95589E-04   -0.42738E-06  4247   0.227E-03    0.193E-02
RMM:  36    -0.389479300141E+03   -0.63589E-04   -0.25850E-06  3394   0.175E-03    0.177E-02
RMM:  37    -0.389479361936E+03   -0.61796E-04   -0.24226E-06  3668   0.172E-03    0.130E-02
RMM:  38    -0.389479477770E+03   -0.11583E-03   -0.60220E-06  4291   0.236E-03    0.639E-03
RMM:  39    -0.389479509819E+03   -0.32049E-04   -0.15945E-06  2046   0.130E-03    0.672E-03
RMM:  40    -0.389479557996E+03   -0.48177E-04   -0.22272E-06  3398   0.159E-03    0.335E-03
RMM:  41    -0.389479585655E+03   -0.27659E-04   -0.11676E-06  2114   0.126E-03    0.266E-03
RMM:  42    -0.389479606641E+03   -0.20986E-04   -0.11150E-06  2321   0.129E-03    0.172E-03
RMM:  43    -0.389479615398E+03   -0.87570E-05   -0.41205E-07  1599   0.105E-03
   1 F= -.38947962E+03 E0= -.38946488E+03  d E =-.389480E+03
 curvature:   0.00 expect dE= 0.000E+00 dE for cont linesearch  0.000E+00
 trial: gam= 0.00000 g(F)=  0.134E+01 g(S)=  0.000E+00 ort = 0.000E+00 (trialstep = 0.100E+01)
 search vector abs. value=  0.134E+01
 bond charge predicted
       N       E                     dE             d eps       ncg     rms          rms(c)
DAV:   1    -0.382906415694E+03    0.65732E+01   -0.27255E+02  7968   0.214E+01    0.776E+00
RMM:   2    -0.384376247764E+03   -0.14698E+01   -0.17437E+01  8065   0.313E+00    0.540E+00
RMM:   3    -0.389562880163E+03   -0.51866E+01   -0.16325E+00  7875   0.143E+00    0.250E+01
RMM:   4    -0.383901160971E+03    0.56617E+01   -0.82115E-01  7901   0.105E+00    0.329E+00
RMM:   5    -0.384077580220E+03   -0.17642E+00   -0.41820E-01  7872   0.778E-01    0.677E+00
RMM:   6    -0.383795503238E+03    0.28208E+00   -0.25419E-01  7870   0.615E-01    0.289E+00
RMM:   7    -0.383733439109E+03    0.62064E-01   -0.10210E-01  7871   0.406E-01    0.132E+00
RMM:   8    -0.383721820994E+03    0.11618E-01   -0.32390E-02  7868   0.228E-01    0.100E+00
RMM:   9    -0.383714829174E+03    0.69918E-02   -0.99845E-03  7869   0.128E-01    0.772E-01
RMM:  10    -0.383710601255E+03    0.42279E-02   -0.37894E-03  7859   0.778E-02    0.343E-01
RMM:  11    -0.383709570229E+03    0.10310E-02   -0.18608E-03  7871   0.533E-02    0.255E-01
RMM:  12    -0.383708748652E+03    0.82158E-03   -0.10020E-03  7869   0.366E-02    0.163E-01
RMM:  13    -0.383708642828E+03    0.10582E-03   -0.42072E-04  7873   0.247E-02    0.142E-01
RMM:  14    -0.383708800230E+03   -0.15740E-03   -0.36890E-04  7911   0.221E-02    0.157E-01
RMM:  15    -0.383709044349E+03   -0.24412E-03   -0.34374E-04  7909   0.207E-02    0.122E-01
RMM:  16    -0.383709146277E+03   -0.10193E-03   -0.95027E-05  7299   0.114E-02    0.668E-02
RMM:  17    -0.383709419384E+03   -0.27311E-03   -0.57397E-05  5816   0.815E-03    0.416E-02
RMM:  18    -0.383709845575E+03   -0.42619E-03   -0.61124E-05  5777   0.825E-03    0.438E-02
RMM:  19    -0.383710320448E+03   -0.47487E-03   -0.66934E-05  5664   0.747E-03    0.345E-02
RMM:  20    -0.383710506002E+03   -0.18555E-03   -0.20144E-05  4636   0.473E-03    0.228E-02
RMM:  21    -0.383710689847E+03   -0.18384E-03   -0.12095E-05  4459   0.370E-03    0.167E-02
RMM:  22    -0.383711025145E+03   -0.33530E-03   -0.17859E-05  4670   0.361E-03    0.147E-02
RMM:  23    -0.383711150526E+03   -0.12538E-03   -0.52748E-06  3721   0.227E-03    0.110E-02
RMM:  24    -0.383711402975E+03   -0.25245E-03   -0.93704E-06  4362   0.256E-03    0.715E-03
RMM:  25    -0.383711491273E+03   -0.88298E-04   -0.42465E-06  2978   0.184E-03    0.629E-03
RMM:  26    -0.383711536072E+03   -0.44799E-04   -0.20441E-06  2665   0.150E-03    0.421E-03
RMM:  27    -0.383711617790E+03   -0.81718E-04   -0.24164E-06  3282   0.165E-03    0.304E-03
RMM:  28    -0.383711663111E+03   -0.45320E-04   -0.11192E-06  2129   0.128E-03    0.229E-03
RMM:  29    -0.383711716027E+03   -0.52917E-04   -0.14213E-06  2904   0.146E-03    0.186E-03
RMM:  30    -0.383711735836E+03   -0.19809E-04   -0.38473E-07  1481   0.105E-03    0.152E-03
RMM:  31    -0.383711749100E+03   -0.13264E-04   -0.29527E-07  1403   0.105E-03    0.175E-03
RMM:  32    -0.383711763925E+03   -0.14825E-04   -0.51661E-07  1763   0.113E-03    0.861E-04
RMM:  33    -0.383711771711E+03   -0.77864E-05   -0.19520E-07  1189   0.983E-04
   2 F= -.38371177E+03 E0= -.38369739E+03  d E =0.576784E+01
 trial-energy change:    5.767844  1 .order    8.474618   -1.336657   18.285892
 step:   0.0681(harm=  0.0681)  dis= 0.00965  next Energy=  -389.525141 (dE=-0.455E-01)
 bond charge predicted
       N       E                     dE             d eps       ncg     rms          rms(c)
DAV:   1    -0.389861337114E+03   -0.61496E+01   -0.24724E+02  7840   0.129E+01    0.583E+00
RMM:   2    -0.389869489863E+03   -0.81527E-02   -0.66622E+00  7984   0.254E+00    0.416E+00
RMM:   3    -0.392922062554E+03   -0.30526E+01   -0.11899E+00  7944   0.121E+00    0.197E+01
RMM:   4    -0.389795170374E+03    0.31269E+01   -0.53101E-01  7903   0.845E-01    0.501E+00
RMM:   5    -0.389655084761E+03    0.14009E+00   -0.27853E-01  7882   0.652E-01    0.378E+00
RMM:   6    -0.389672810634E+03   -0.17726E-01   -0.19069E-01  7888   0.542E-01    0.392E+00
RMM:   7    -0.389564051515E+03    0.10876E+00   -0.82803E-02  7885   0.373E-01    0.144E+00
RMM:   8    -0.389551161340E+03    0.12890E-01   -0.24889E-02  7884   0.202E-01    0.803E-01
RMM:   9    -0.389551750611E+03   -0.58927E-03   -0.10086E-02  7870   0.122E-01    0.662E-01
RMM:  10    -0.389549916738E+03    0.18339E-02   -0.52494E-03  7883   0.937E-02    0.388E-01
RMM:  11    -0.389550401251E+03   -0.48451E-03   -0.15932E-03  7879   0.502E-02    0.382E-01
RMM:  12    -0.389550666327E+03   -0.26508E-03   -0.88318E-04  7873   0.369E-02    0.269E-01
RMM:  13    -0.389550918158E+03   -0.25183E-03   -0.52027E-04  7874   0.292E-02    0.120E-01
RMM:  14    -0.389551589027E+03   -0.67087E-03   -0.23063E-04  7837   0.185E-02    0.883E-02
RMM:  15    -0.389551901698E+03   -0.31267E-03   -0.82343E-05  6988   0.114E-02    0.559E-02
RMM:  16    -0.389552207275E+03   -0.30558E-03   -0.48502E-05  5538   0.871E-03    0.349E-02
RMM:  17    -0.389552845517E+03   -0.63824E-03   -0.10022E-04  6240   0.108E-02    0.394E-02
RMM:  18    -0.389553435668E+03   -0.59015E-03   -0.12121E-04  6388   0.112E-02    0.299E-02
RMM:  19    -0.389553744053E+03   -0.30838E-03   -0.53997E-05  5370   0.719E-03    0.202E-02
RMM:  20    -0.389553883675E+03   -0.13962E-03   -0.18117E-05  4623   0.443E-03    0.223E-02
RMM:  21    -0.389554051091E+03   -0.16742E-03   -0.21255E-05  4722   0.459E-03    0.201E-02
RMM:  22    -0.389554247066E+03   -0.19598E-03   -0.37205E-05  5084   0.540E-03    0.931E-03
RMM:  23    -0.389554303097E+03   -0.56031E-04   -0.84453E-06  4218   0.278E-03    0.787E-03
RMM:  24    -0.389554362342E+03   -0.59245E-04   -0.55774E-06  3742   0.228E-03    0.632E-03
RMM:  25    -0.389554391771E+03   -0.29430E-04   -0.24408E-06  2862   0.164E-03    0.474E-03
RMM:  26    -0.389554414413E+03   -0.22642E-04   -0.14883E-06  2836   0.145E-03    0.322E-03
RMM:  27    -0.389554456372E+03   -0.41959E-04   -0.20414E-06  3341   0.172E-03    0.183E-03
RMM:  28    -0.389554472665E+03   -0.16293E-04   -0.65540E-07  1986   0.122E-03    0.146E-03
RMM:  29    -0.389554488697E+03   -0.16032E-04   -0.73252E-07  2418   0.128E-03    0.157E-03
RMM:  30    -0.389554498124E+03   -0.94269E-05   -0.30173E-07  1569   0.110E-03
   3 F= -.38955450E+03 E0= -.38953976E+03  d E =-.748827E-01
 curvature:  -0.03 expect dE=-0.207E-01 dE for cont linesearch -0.184E-01
 ZBRENT: interpolating
 opt :   0.1095  next Energy=  -389.572109 (dE=-0.925E-01)
 bond charge predicted
       N       E                     dE             d eps       ncg     rms          rms(c)
DAV:   1    -0.389581962028E+03   -0.27473E-01   -0.46115E-01  7976   0.830E-01    0.227E-01
RMM:   2    -0.389583986324E+03   -0.20243E-02   -0.20752E-02  7907   0.138E-01    0.288E-01
RMM:   3    -0.389585938811E+03   -0.19525E-02   -0.12514E-03  7933   0.402E-02    0.633E-01
RMM:   4    -0.389583262867E+03    0.26759E-02   -0.92185E-04  7891   0.365E-02    0.199E-01
RMM:   5    -0.389583199257E+03    0.63610E-04   -0.64507E-04  7879   0.316E-02    0.200E-01
RMM:   6    -0.389583007641E+03    0.19162E-03   -0.36315E-04  7854   0.239E-02    0.142E-01
RMM:   7    -0.389582895306E+03    0.11233E-03   -0.15218E-04  7821   0.156E-02    0.743E-02
RMM:   8    -0.389582861215E+03    0.34092E-04   -0.46443E-05  6120   0.882E-03    0.357E-02
RMM:   9    -0.389582857919E+03    0.32955E-05   -0.13235E-05  4201   0.510E-03
   4 F= -.38958286E+03 E0= -.38956813E+03  d E =-.103243E+00
 curvature:  -0.03 expect dE=-0.127E-01 dE for cont linesearch -0.652E-02
 ZBRENT: interpolating
 opt :   0.1722  next Energy=  -389.599513 (dE=-0.120E+00)
 bond charge predicted
       N       E                     dE             d eps       ncg     rms          rms(c)
DAV:   1    -0.389595885875E+03   -0.13025E-01   -0.10614E+00  7928   0.123E+00    0.357E-01
RMM:   2    -0.389601159665E+03   -0.52738E-02   -0.48726E-02  7910   0.206E-01    0.519E-01
RMM:   3    -0.389603949962E+03   -0.27903E-02   -0.28629E-03  7931   0.601E-02    0.875E-01
RMM:   4    -0.389599082771E+03    0.48672E-02   -0.23653E-03  7889   0.574E-02    0.351E-01
RMM:   5    -0.389598635588E+03    0.44718E-03   -0.15623E-03  7893   0.492E-02    0.297E-01
RMM:   6    -0.389598333890E+03    0.30170E-03   -0.84418E-04  7865   0.363E-02    0.234E-01
RMM:   7    -0.389597976504E+03    0.35739E-03   -0.37771E-04  7848   0.245E-02    0.104E-01
RMM:   8    -0.389597914119E+03    0.62385E-04   -0.10806E-04  7710   0.132E-02    0.541E-02
RMM:   9    -0.389597907579E+03    0.65393E-05   -0.31550E-05  5071   0.738E-03
   5 F= -.38959791E+03 E0= -.38958319E+03  d E =-.118292E+00
 curvature:  -0.08 expect dE=-0.464E-01 dE for cont linesearch -0.118E-03
 trial: gam= 0.44993 g(F)=  0.558E+00 g(S)=  0.000E+00 ort =-0.436E-01 (trialstep = 0.834E+00)
 search vector abs. value=  0.789E+00
 bond charge predicted
       N       E                     dE             d eps       ncg     rms          rms(c)
DAV:   1    -0.389938566077E+03   -0.34065E+00   -0.70033E+01  7840   0.110E+01    0.259E+00
RMM:   2    -0.390236338420E+03   -0.29777E+00   -0.19422E+00  7929   0.168E+00    0.519E+00
RMM:   3    -0.390425233176E+03   -0.18889E+00   -0.20951E-01  7905   0.536E-01    0.740E+00
RMM:   4    -0.390049521079E+03    0.37571E+00   -0.10532E-01  7898   0.400E-01    0.191E+00
RMM:   5    -0.390066292352E+03   -0.16771E-01   -0.60817E-02  7883   0.307E-01    0.256E+00
RMM:   6    -0.390037952494E+03    0.28340E-01   -0.35627E-02  7882   0.240E-01    0.142E+00
RMM:   7    -0.390032352255E+03    0.56002E-02   -0.26870E-02  7878   0.206E-01    0.999E-01
RMM:   8    -0.390028083231E+03    0.42690E-02   -0.11257E-02  7874   0.135E-01    0.652E-01
RMM:   9    -0.390024767763E+03    0.33155E-02   -0.37086E-03  7878   0.779E-02    0.238E-01
RMM:  10    -0.390024512080E+03    0.25568E-03   -0.62761E-04  7881   0.316E-02    0.156E-01
RMM:  11    -0.390024446948E+03    0.65132E-04   -0.25862E-04  7845   0.206E-02    0.135E-01
RMM:  12    -0.390024355093E+03    0.91855E-04   -0.12459E-04  7821   0.143E-02    0.617E-02
RMM:  13    -0.390024376799E+03   -0.21706E-04   -0.77429E-05  7497   0.113E-02    0.599E-02
RMM:  14    -0.390024362765E+03    0.14034E-04   -0.29043E-05  4754   0.751E-03    0.374E-02
RMM:  15    -0.390024358565E+03    0.41998E-05   -0.89834E-06  4183   0.428E-03
   6 F= -.39002436E+03 E0= -.39000953E+03  d E =-.426451E+00
 ZBRENT: can't locate minimum, use default step
 trial-energy change:   -0.426451  1 .order   -0.408739   -0.449094   -0.368385
 step:   3.3377(harm=  4.6431)  dis= 0.25484  next Energy=  -390.847362 (dE=-0.125E+01)
 bond charge predicted
       N       E                     dE             d eps       ncg     rms          rms(c)
DAV:   1    -0.386666480457E+03    0.33579E+01   -0.61388E+02  7840   0.317E+01    0.968E+00
RMM:   2    -0.388996097166E+03   -0.23296E+01   -0.26786E+01  7890   0.603E+00    0.719E+00
RMM:   3    -0.391857904704E+03   -0.28618E+01   -0.18718E+00  7891   0.163E+00    0.192E+01
RMM:   4    -0.389215604304E+03    0.26423E+01   -0.69800E-01  7949   0.996E-01    0.802E+00
RMM:   5    -0.389092495075E+03    0.12311E+00   -0.38043E-01  7885   0.753E-01    0.719E+00
RMM:   6    -0.388936729845E+03    0.15577E+00   -0.35125E-01  7878   0.724E-01    0.428E+00
RMM:   7    -0.388843563210E+03    0.93167E-01   -0.25102E-01  7881   0.637E-01    0.245E+00
RMM:   8    -0.388799254635E+03    0.44309E-01   -0.69597E-02  7878   0.340E-01    0.146E+00
RMM:   9    -0.388788937820E+03    0.10317E-01   -0.17670E-02  7880   0.169E-01    0.103E+00
RMM:  10    -0.388786766182E+03    0.21716E-02   -0.10977E-02  7908   0.128E-01    0.806E-01
RMM:  11    -0.388786077544E+03    0.68864E-03   -0.10250E-02  7884   0.127E-01    0.575E-01
RMM:  12    -0.388785322385E+03    0.75516E-03   -0.39331E-03  7876   0.822E-02    0.411E-01
RMM:  13    -0.388785004824E+03    0.31756E-03   -0.14985E-03  7878   0.490E-02    0.304E-01
RMM:  14    -0.388784902599E+03    0.10222E-03   -0.75740E-04  7851   0.354E-02    0.143E-01
RMM:  15    -0.388785326818E+03   -0.42422E-03   -0.30351E-04  7840   0.223E-02    0.875E-02
RMM:  16    -0.388785668117E+03   -0.34130E-03   -0.14035E-04  7806   0.152E-02    0.633E-02
RMM:  17    -0.388786074722E+03   -0.40661E-03   -0.92878E-05  7142   0.120E-02    0.611E-02
RMM:  18    -0.388786378411E+03   -0.30369E-03   -0.52461E-05  5612   0.923E-03    0.319E-02
RMM:  19    -0.388786791643E+03   -0.41323E-03   -0.61008E-05  5927   0.920E-03    0.303E-02
RMM:  20    -0.388787186314E+03   -0.39467E-03   -0.63111E-05  5846   0.850E-03    0.336E-02
RMM:  21    -0.388787397586E+03   -0.21127E-03   -0.30503E-05  4941   0.594E-03    0.279E-02
RMM:  22    -0.388787654666E+03   -0.25708E-03   -0.47282E-05  5527   0.664E-03    0.200E-02
RMM:  23    -0.388787778985E+03   -0.12432E-03   -0.22540E-05  4773   0.469E-03    0.119E-02
RMM:  24    -0.388787810624E+03   -0.31639E-04   -0.49091E-06  3932   0.231E-03    0.783E-03
RMM:  25    -0.388787871359E+03   -0.60735E-04   -0.47894E-06  4123   0.234E-03    0.618E-03
RMM:  26    -0.388787939705E+03   -0.68346E-04   -0.56777E-06  4083   0.234E-03    0.564E-03
RMM:  27    -0.388787990757E+03   -0.51052E-04   -0.49985E-06  3895   0.211E-03    0.421E-03
RMM:  28    -0.388788003998E+03   -0.13241E-04   -0.11302E-06  1979   0.123E-03    0.270E-03
RMM:  29    -0.388788013428E+03   -0.94301E-05   -0.47104E-07  1497   0.110E-03
   7 F= -.38878801E+03 E0= -.38877542E+03  d E =0.809894E+00
 curvature:  -3.00 expect dE=-0.487E+02 dE for cont linesearch -0.107E+02
 ZBRENT: interpolating
 opt :   1.3555  next Energy=  -390.139377 (dE=-0.541E+00)
 bond charge predicted
       N       E                     dE             d eps       ncg     rms          rms(c)
DAV:   1    -0.389003390567E+03   -0.21539E+00   -0.40492E+02  7840   0.307E+01    0.797E+00
RMM:   2    -0.390586290988E+03   -0.15829E+01   -0.16414E+01  7891   0.475E+00    0.580E+00
RMM:   3    -0.392252629311E+03   -0.16663E+01   -0.12690E+00  7859   0.141E+00    0.158E+01
RMM:   4    -0.390749516135E+03    0.15031E+01   -0.52171E-01  7928   0.861E-01    0.815E+00
RMM:   5    -0.390445360373E+03    0.30416E+00   -0.32133E-01  7865   0.693E-01    0.583E+00
RMM:   6    -0.390285304417E+03    0.16006E+00   -0.18107E-01  7874   0.537E-01    0.316E+00
RMM:   7    -0.390253935213E+03    0.31369E-01   -0.14203E-01  7874   0.476E-01    0.250E+00
RMM:   8    -0.390209649486E+03    0.44286E-01   -0.72552E-02  7877   0.343E-01    0.128E+00
RMM:   9    -0.390203630073E+03    0.60194E-02   -0.22150E-02  7882   0.189E-01    0.106E+00
RMM:  10    -0.390198711921E+03    0.49182E-02   -0.10218E-02  7881   0.129E-01    0.713E-01
RMM:  11    -0.390195527634E+03    0.31843E-02   -0.46839E-03  7875   0.870E-02    0.410E-01
RMM:  12    -0.390195149268E+03    0.37837E-03   -0.19375E-03  7875   0.561E-02    0.335E-01
RMM:  13    -0.390194472815E+03    0.67645E-03   -0.80088E-04  7874   0.364E-02    0.179E-01
RMM:  14    -0.390194505048E+03   -0.32233E-04   -0.38038E-04  7845   0.245E-02    0.164E-01
RMM:  15    -0.390194550821E+03   -0.45773E-04   -0.20579E-04  7838   0.183E-02    0.901E-02
RMM:  16    -0.390194664498E+03   -0.11368E-03   -0.11033E-04  7713   0.132E-02    0.553E-02
RMM:  17    -0.390194919849E+03   -0.25535E-03   -0.61547E-05  6425   0.937E-03    0.529E-02
RMM:  18    -0.390195169276E+03   -0.24943E-03   -0.41605E-05  5289   0.757E-03    0.264E-02
RMM:  19    -0.390195336488E+03   -0.16721E-03   -0.18859E-05  4560   0.517E-03    0.308E-02
RMM:  20    -0.390195572842E+03   -0.23635E-03   -0.21974E-05  4625   0.512E-03    0.254E-02
RMM:  21    -0.390195817685E+03   -0.24484E-03   -0.20260E-05  4604   0.471E-03    0.160E-02
RMM:  22    -0.390196021586E+03   -0.20390E-03   -0.11483E-05  4452   0.347E-03    0.129E-02
RMM:  23    -0.390196225627E+03   -0.20404E-03   -0.10428E-05  4506   0.302E-03    0.991E-03
RMM:  24    -0.390196290208E+03   -0.64581E-04   -0.30902E-06  3236   0.178E-03    0.877E-03
RMM:  25    -0.390196398042E+03   -0.10783E-03   -0.34864E-06  3872   0.185E-03    0.655E-03
RMM:  26    -0.390196498414E+03   -0.10037E-03   -0.33756E-06  3374   0.175E-03    0.364E-03
RMM:  27    -0.390196557700E+03   -0.59286E-04   -0.18556E-06  2781   0.147E-03    0.302E-03
RMM:  28    -0.390196605734E+03   -0.48034E-04   -0.13881E-06  2720   0.138E-03    0.191E-03
RMM:  29    -0.390196640929E+03   -0.35195E-04   -0.77230E-07  1938   0.122E-03    0.171E-03
RMM:  30    -0.390196682397E+03   -0.41468E-04   -0.15495E-06  3396   0.160E-03    0.155E-03
RMM:  31    -0.390196690827E+03   -0.84299E-05   -0.24994E-07  1145   0.867E-04
   8 F= -.39019669E+03 E0= -.39018233E+03  d E =-.598783E+00
 curvature:  -0.03 expect dE=-0.224E-01 dE for cont linesearch -0.148E-02
 ZBRENT: interpolating
 opt :   1.7101  next Energy=  -390.233862 (dE=-0.636E+00)
 bond charge predicted
       N       E                     dE             d eps       ncg     rms          rms(c)
DAV:   1    -0.390201479628E+03   -0.47972E-02   -0.13294E+01  7840   0.480E+00    0.944E-01
RMM:   2    -0.390230665798E+03   -0.29186E-01   -0.31501E-01  7908   0.720E-01    0.116E+00
RMM:   3    -0.390262357016E+03   -0.31691E-01   -0.23800E-02  7906   0.191E-01    0.246E+00
RMM:   4    -0.390226488551E+03    0.35868E-01   -0.12130E-02  7914   0.133E-01    0.105E+00
RMM:   5    -0.390226796239E+03   -0.30769E-03   -0.10952E-02  7878   0.129E-01    0.110E+00
RMM:   6    -0.390221097891E+03    0.56983E-02   -0.72315E-03  7874   0.109E-01    0.531E-01
RMM:   7    -0.390219616006E+03    0.14819E-02   -0.36656E-03  7875   0.767E-02    0.315E-01
RMM:   8    -0.390219141925E+03    0.47408E-03   -0.11976E-03  7874   0.437E-02    0.217E-01
RMM:   9    -0.390218774847E+03    0.36708E-03   -0.37053E-04  7848   0.250E-02    0.801E-02
RMM:  10    -0.390218773915E+03    0.93190E-06   -0.79099E-05  7620   0.114E-02
   9 F= -.39021877E+03 E0= -.39020481E+03  d E =-.620866E+00
 curvature:  -0.81 expect dE=-0.151E+01 dE for cont linesearch -0.603E-02
 trial: gam= 4.45534 g(F)=  0.186E+01 g(S)=  0.000E+00 ort =-0.767E-01 (trialstep = 0.473E-01)
 search vector abs. value=  0.168E+02
 bond charge predicted
       N       E                     dE             d eps       ncg     rms          rms(c)
DAV:   1    -0.390273967448E+03   -0.55193E-01   -0.47508E+00  7840   0.298E+00    0.424E-01
RMM:   2    -0.390282868462E+03   -0.89010E-02   -0.88327E-02  7898   0.396E-01    0.516E-01
RMM:   3    -0.390284496365E+03   -0.16279E-02   -0.64156E-03  7908   0.104E-01    0.760E-01
RMM:   4    -0.390286689375E+03   -0.21930E-02   -0.27133E-03  7928   0.615E-02    0.936E-01
RMM:   5    -0.390281224718E+03    0.54647E-02   -0.17294E-03  7872   0.506E-02    0.328E-01
RMM:   6    -0.390281182473E+03    0.42245E-04   -0.15614E-03  7865   0.498E-02    0.246E-01
RMM:   7    -0.390280983749E+03    0.19872E-03   -0.91875E-04  7874   0.390E-02    0.166E-01
RMM:   8    -0.390280861786E+03    0.12196E-03   -0.32537E-04  7843   0.233E-02    0.122E-01
RMM:   9    -0.390280784687E+03    0.77099E-04   -0.86087E-05  7749   0.120E-02    0.470E-02
RMM:  10    -0.390280781088E+03    0.35986E-05   -0.22437E-05  4431   0.649E-03
  10 F= -.39028078E+03 E0= -.39026708E+03  d E =-.620072E-01
 trial-energy change:   -0.062007  1 .order   -0.061889   -0.071761   -0.052017
 step:   0.1720(harm=  0.1720)  dis= 0.05479  next Energy=  -390.349185 (dE=-0.130E+00)
 bond charge predicted
       N       E                     dE             d eps       ncg     rms          rms(c)
DAV:   1    -0.390299171978E+03   -0.18387E-01   -0.32745E+01  7840   0.781E+00    0.112E+00
RMM:   2    -0.390361744467E+03   -0.62572E-01   -0.65435E-01  7893   0.106E+00    0.109E+00
RMM:   3    -0.390386903392E+03   -0.25159E-01   -0.45093E-02  7905   0.275E-01    0.230E+00
RMM:   4    -0.390381844182E+03    0.50592E-02   -0.17854E-02  7938   0.158E-01    0.211E+00
RMM:   5    -0.390354410826E+03    0.27433E-01   -0.11349E-02  7878   0.130E-01    0.903E-01
RMM:   6    -0.390352607245E+03    0.18036E-02   -0.93633E-03  7869   0.121E-01    0.610E-01
RMM:   7    -0.390351793289E+03    0.81396E-03   -0.60568E-03  7873   0.997E-02    0.458E-01
RMM:   8    -0.390350084386E+03    0.17089E-02   -0.22094E-03  7867   0.607E-02    0.191E-01
RMM:   9    -0.390349890560E+03    0.19383E-03   -0.46315E-04  7858   0.273E-02    0.125E-01
RMM:  10    -0.390349830199E+03    0.60360E-04   -0.14457E-04  7830   0.153E-02    0.776E-02
RMM:  11    -0.390349837726E+03   -0.75272E-05   -0.76691E-05  7455   0.110E-02
  11 F= -.39034984E+03 E0= -.39033654E+03  d E =-.131064E+00
 curvature:  -0.95 expect dE=-0.190E+01 dE for cont linesearch -0.120E-04
 trial: gam= 0.08240 g(F)=  0.199E+01 g(S)=  0.000E+00 ort =-0.146E-01 (trialstep = 0.722E-01)
 search vector abs. value=  0.211E+01
 bond charge predicted
       N       E                     dE             d eps       ncg     rms          rms(c)
DAV:   1    -0.390452577955E+03   -0.10275E+00   -0.23353E+00  7920   0.179E+00    0.643E-01
RMM:   2    -0.390460279309E+03   -0.77014E-02   -0.10011E-01  7910   0.343E-01    0.550E-01
RMM:   3    -0.390464104617E+03   -0.38253E-02   -0.78420E-03  7888   0.107E-01    0.982E-01
RMM:   4    -0.390467878608E+03   -0.37740E-02   -0.47009E-03  7911   0.793E-02    0.120E+00
RMM:   5    -0.390461690487E+03    0.61881E-02   -0.61746E-03  7874   0.947E-02    0.815E-01
RMM:   6    -0.390457302021E+03    0.43885E-02   -0.29597E-03  7868   0.695E-02    0.309E-01
RMM:   7    -0.390456758648E+03    0.54337E-03   -0.89105E-04  7861   0.375E-02    0.180E-01
RMM:   8    -0.390456531094E+03    0.22755E-03   -0.23424E-04  7840   0.196E-02    0.866E-02
RMM:   9    -0.390456483076E+03    0.48018E-04   -0.10471E-04  7738   0.127E-02    0.602E-02
RMM:  10    -0.390456473519E+03    0.95567E-05   -0.35100E-05  5258   0.764E-03
  12 F= -.39045647E+03 E0= -.39044319E+03  d E =-.106636E+00
 trial-energy change:   -0.106636  1 .order   -0.105475   -0.144017   -0.066933
 step:   0.1264(harm=  0.1350)  dis= 0.02241  next Energy=  -390.482055 (dE=-0.132E+00)
 bond charge predicted
       N       E                     dE             d eps       ncg     rms          rms(c)
DAV:   1    -0.390479440608E+03   -0.22958E-01   -0.13283E+00  7904   0.129E+00    0.491E-01
RMM:   2    -0.390484172410E+03   -0.47318E-02   -0.60557E-02  7937   0.250E-01    0.460E-01
RMM:   3    -0.390490941385E+03   -0.67690E-02   -0.49896E-03  7904   0.842E-02    0.113E+00
RMM:   4    -0.390486036346E+03    0.49050E-02   -0.31444E-03  7906   0.648E-02    0.739E-01
RMM:   5    -0.390484078896E+03    0.19575E-02   -0.35422E-03  7868   0.724E-02    0.590E-01
RMM:   6    -0.390481826674E+03    0.22522E-02   -0.17461E-03  7875   0.530E-02    0.193E-01
RMM:   7    -0.390481553184E+03    0.27349E-03   -0.47862E-04  7866   0.278E-02    0.117E-01
RMM:   8    -0.390481472876E+03    0.80309E-04   -0.13456E-04  7821   0.148E-02    0.864E-02
RMM:   9    -0.390481443123E+03    0.29752E-04   -0.49914E-05  6416   0.901E-03    0.487E-02
RMM:  10    -0.390481451213E+03   -0.80896E-05   -0.23352E-05  4494   0.646E-03
  13 F= -.39048145E+03 E0= -.39046812E+03  d E =-.131613E+00
 curvature:  -0.07 expect dE=-0.105E-01 dE for cont linesearch -0.521E-05
 trial: gam= 0.09635 g(F)=  0.151E+00 g(S)=  0.000E+00 ort =-0.125E-01 (trialstep = 0.831E-01)
 search vector abs. value=  0.168E+00
 bond charge predicted
       N       E                     dE             d eps       ncg     rms          rms(c)
DAV:   1    -0.390493160142E+03   -0.11717E-01   -0.25723E-01  7968   0.672E-01    0.898E-02
RMM:   2    -0.390493830465E+03   -0.67032E-03   -0.42374E-03  7894   0.102E-01    0.203E-01
RMM:   3    -0.390493772828E+03    0.57637E-04   -0.36935E-04  7961   0.243E-02    0.194E-01
RMM:   4    -0.390493615425E+03    0.15740E-03   -0.16282E-04  7872   0.159E-02    0.114E-01
RMM:   5    -0.390493574778E+03    0.40647E-04   -0.85770E-05  7745   0.120E-02    0.597E-02
RMM:   6    -0.390493603919E+03   -0.29140E-04   -0.62638E-05  7109   0.100E-02    0.625E-02
RMM:   7    -0.390493612590E+03   -0.86712E-05   -0.34256E-05  5121   0.771E-03
  14 F= -.39049361E+03 E0= -.39048035E+03  d E =-.121614E-01
 ZBRENT: can't locate minimum, use default step
 trial-energy change:   -0.012161  1 .order   -0.012029   -0.012422   -0.011635
 step:   0.3323(harm=  1.3115)  dis= 0.01045  next Energy=  -390.579513 (dE=-0.981E-01)
 bond charge predicted
       N       E                     dE             d eps       ncg     rms          rms(c)
DAV:   1    -0.390521593082E+03   -0.27989E-01   -0.23147E+00  7856   0.202E+00    0.267E-01
RMM:   2    -0.390525616055E+03   -0.40230E-02   -0.37995E-02  7898   0.306E-01    0.370E-01
RMM:   3    -0.390528429843E+03   -0.28138E-02   -0.32797E-03  7965   0.728E-02    0.736E-01
RMM:   4    -0.390525250861E+03    0.31790E-02   -0.13970E-03  7916   0.461E-02    0.321E-01
RMM:   5    -0.390524948928E+03    0.30193E-03   -0.81783E-04  7878   0.363E-02    0.243E-01
RMM:   6    -0.390524764647E+03    0.18428E-03   -0.49248E-04  7859   0.278E-02    0.145E-01
RMM:   7    -0.390524716983E+03    0.47664E-04   -0.30218E-04  7845   0.220E-02    0.910E-02
RMM:   8    -0.390524699967E+03    0.17017E-04   -0.13415E-04  7816   0.150E-02    0.619E-02
RMM:   9    -0.390524678838E+03    0.21129E-04   -0.31468E-05  4866   0.769E-03    0.346E-02
RMM:  10    -0.390524676684E+03    0.21535E-05   -0.98830E-06  4169   0.446E-03
  15 F= -.39052468E+03 E0= -.39051138E+03  d E =-.432255E-01
 curvature:  -0.27 expect dE=-0.214E-01 dE for cont linesearch -0.186E-01
 ZBRENT: increasing intervall
 opt :   0.8307  next Energy=  -390.562389 (dE=-0.809E-01)
 bond charge predicted
       N       E                     dE             d eps       ncg     rms          rms(c)
DAV:   1    -0.390551653001E+03   -0.26974E-01   -0.92602E+00  7840   0.404E+00    0.520E-01
RMM:   2    -0.390568319095E+03   -0.16666E-01   -0.15419E-01  7903   0.615E-01    0.771E-01
RMM:   3    -0.390577368793E+03   -0.90497E-02   -0.12583E-02  7974   0.143E-01    0.137E+00
RMM:   4    -0.390566127419E+03    0.11241E-01   -0.53349E-03  7916   0.912E-02    0.596E-01
RMM:   5    -0.390564994697E+03    0.11327E-02   -0.30399E-03  7879   0.696E-02    0.469E-01
RMM:   6    -0.390564250052E+03    0.74464E-03   -0.19001E-03  7873   0.546E-02    0.285E-01
RMM:   7    -0.390563980990E+03    0.26906E-03   -0.11637E-03  7867   0.432E-02    0.182E-01
RMM:   8    -0.390563900539E+03    0.80452E-04   -0.53311E-04  7861   0.299E-02    0.140E-01
RMM:   9    -0.390563762496E+03    0.13804E-03   -0.14243E-04  7822   0.156E-02    0.624E-02
RMM:  10    -0.390563743928E+03    0.18568E-04   -0.38878E-05  5594   0.817E-03    0.410E-02
RMM:  11    -0.390563738547E+03    0.53808E-05   -0.31024E-05  4632   0.743E-03
  16 F= -.39056374E+03 E0= -.39055045E+03  d E =-.822873E-01
 curvature:  -0.54 expect dE=-0.234E-01 dE for cont linesearch -0.802E-02
 ZBRENT: increasing intervall
 opt :   1.8276  next Energy=  -390.555369 (dE=-0.739E-01)
 bond charge predicted
       N       E                     dE             d eps       ncg     rms          rms(c)
DAV:   1    -0.390509143134E+03    0.54601E-01   -0.37094E+01  7840   0.811E+00    0.103E+00
RMM:   2    -0.390584091801E+03   -0.74949E-01   -0.64297E-01  7898   0.124E+00    0.176E+00
RMM:   3    -0.390604059200E+03   -0.19967E-01   -0.49519E-02  7962   0.284E-01    0.245E+00
RMM:   4    -0.390570616614E+03    0.33443E-01   -0.21513E-02  7912   0.183E-01    0.124E+00
RMM:   5    -0.390564987652E+03    0.56290E-02   -0.11835E-02  7887   0.137E-01    0.968E-01
RMM:   6    -0.390561647817E+03    0.33398E-02   -0.75921E-03  7878   0.109E-01    0.595E-01
RMM:   7    -0.390560743938E+03    0.90388E-03   -0.50349E-03  7876   0.896E-02    0.420E-01
RMM:   8    -0.390560057529E+03    0.68641E-03   -0.24748E-03  7869   0.641E-02    0.289E-01
RMM:   9    -0.390559472516E+03    0.58501E-03   -0.66529E-04  7865   0.337E-02    0.127E-01
RMM:  10    -0.390559392330E+03    0.80186E-04   -0.17733E-04  7836   0.169E-02    0.916E-02
RMM:  11    -0.390559359874E+03    0.32456E-04   -0.13304E-04  7823   0.142E-02    0.802E-02
RMM:  12    -0.390559313999E+03    0.45875E-04   -0.85025E-05  7754   0.116E-02    0.272E-02
RMM:  13    -0.390559320418E+03   -0.64197E-05   -0.23165E-05  4398   0.659E-03
  17 F= -.39055932E+03 E0= -.39054618E+03  d E =-.778692E-01
 curvature:   0.57 expect dE= 0.124E+00 dE for cont linesearch  0.123E-01
 ZBRENT: bracketing found
 ZBRENT: interpolating
 opt :   1.2812  next Energy=  -390.574941 (dE=-0.935E-01)
 bond charge predicted
       N       E                     dE             d eps       ncg     rms          rms(c)
DAV:   1    -0.390559747861E+03   -0.43386E-03   -0.11135E+01  7840   0.450E+00    0.547E-01
RMM:   2    -0.390581700237E+03   -0.21952E-01   -0.19593E-01  7894   0.683E-01    0.885E-01
RMM:   3    -0.390587147966E+03   -0.54477E-02   -0.14516E-02  7975   0.153E-01    0.126E+00
RMM:   4    -0.390579026449E+03    0.81215E-02   -0.59164E-03  7924   0.960E-02    0.712E-01
RMM:   5    -0.390576979811E+03    0.20466E-02   -0.34979E-03  7875   0.745E-02    0.510E-01
RMM:   6    -0.390576220402E+03    0.75941E-03   -0.23659E-03  7869   0.609E-02    0.334E-01
RMM:   7    -0.390575860392E+03    0.36001E-03   -0.15051E-03  7873   0.490E-02    0.220E-01
RMM:   8    -0.390575720935E+03    0.13946E-03   -0.73512E-04  7864   0.348E-02    0.158E-01
RMM:   9    -0.390575528599E+03    0.19234E-03   -0.19704E-04  7832   0.184E-02    0.644E-02
RMM:  10    -0.390575510416E+03    0.18183E-04   -0.55459E-05  6737   0.954E-03    0.512E-02
RMM:  11    -0.390575499147E+03    0.11269E-04   -0.38364E-05  5193   0.805E-03    0.464E-02
RMM:  12    -0.390575483183E+03    0.15964E-04   -0.20623E-05  4288   0.651E-03    0.141E-02
RMM:  13    -0.390575483163E+03    0.20184E-07   -0.77929E-06  4117   0.416E-03
  18 F= -.39057548E+03 E0= -.39056229E+03  d E =-.940320E-01
 curvature:  -0.52 expect dE=-0.408E-01 dE for cont linesearch -0.901E-05
 trial: gam= 0.64594 g(F)=  0.789E-01 g(S)=  0.000E+00 ort = 0.171E-02 (trialstep = 0.323E+00)
 search vector abs. value=  0.151E+00
 bond charge predicted
       N       E                     dE             d eps       ncg     rms          rms(c)
DAV:   1    -0.390586110554E+03   -0.10627E-01   -0.33057E+00  7840   0.240E+00    0.317E-01
RMM:   2    -0.390592927566E+03   -0.68170E-02   -0.65367E-02  7908   0.353E-01    0.443E-01
RMM:   3    -0.390595053438E+03   -0.21259E-02   -0.38320E-03  7943   0.775E-02    0.732E-01
RMM:   4    -0.390591879949E+03    0.31735E-02   -0.18593E-03  7916   0.532E-02    0.343E-01
RMM:   5    -0.390591487529E+03    0.39242E-03   -0.12772E-03  7867   0.442E-02    0.281E-01
RMM:   6    -0.390591309660E+03    0.17787E-03   -0.94045E-04  7871   0.385E-02    0.214E-01
RMM:   7    -0.390591113000E+03    0.19666E-03   -0.48964E-04  7856   0.280E-02    0.145E-01
RMM:   8    -0.390590960353E+03    0.15265E-03   -0.17742E-04  7839   0.170E-02    0.579E-02
RMM:   9    -0.390590938817E+03    0.21536E-04   -0.47538E-05  6197   0.898E-03    0.350E-02
RMM:  10    -0.390590936348E+03    0.24690E-05   -0.18719E-05  4395   0.603E-03
  19 F= -.39059094E+03 E0= -.39057775E+03  d E =-.154532E-01
 trial-energy change:   -0.015453  1 .order   -0.015438   -0.025833   -0.005044
 step:   0.4010(harm=  0.4010)  dis= 0.01509  next Energy=  -390.591534 (dE=-0.161E-01)
 bond charge predicted
       N       E                     dE             d eps       ncg     rms          rms(c)
DAV:   1    -0.390591322969E+03   -0.38415E-03   -0.19459E-01  7936   0.571E-01    0.820E-02
RMM:   2    -0.390591855178E+03   -0.53221E-03   -0.36010E-03  7913   0.850E-02    0.188E-01
RMM:   3    -0.390591764902E+03    0.90276E-04   -0.25285E-04  7912   0.201E-02    0.162E-01
RMM:   4    -0.390591681911E+03    0.82991E-04   -0.11785E-04  7856   0.134E-02    0.125E-01
RMM:   5    -0.390591595042E+03    0.86868E-04   -0.76437E-05  7471   0.111E-02    0.478E-02
RMM:   6    -0.390591596610E+03   -0.15674E-05   -0.63412E-05  7054   0.102E-02
  20 F= -.39059160E+03 E0= -.39057840E+03  d E =-.161134E-01
 curvature:  -0.38 expect dE=-0.587E-01 dE for cont linesearch -0.162E-05
 trial: gam= 2.00949 g(F)=  0.155E+00 g(S)=  0.000E+00 ort = 0.804E-03 (trialstep = 0.665E-01)
 search vector abs. value=  0.769E+00
 bond charge predicted
       N       E                     dE             d eps       ncg     rms          rms(c)
DAV:   1    -0.390600425531E+03   -0.88305E-02   -0.64183E-01  7856   0.105E+00    0.163E-01
RMM:   2    -0.390601695027E+03   -0.12695E-02   -0.10572E-02  7934   0.155E-01    0.262E-01
RMM:   3    -0.390602081319E+03   -0.38629E-03   -0.87348E-04  7954   0.371E-02    0.352E-01
RMM:   4    -0.390601613984E+03    0.46733E-03   -0.41361E-04  7916   0.245E-02    0.250E-01
RMM:   5    -0.390601342714E+03    0.27127E-03   -0.30211E-04  7859   0.218E-02    0.138E-01
RMM:   6    -0.390601334042E+03    0.86723E-05   -0.24195E-04  7839   0.196E-02    0.112E-01
RMM:   7    -0.390601263934E+03    0.70108E-04   -0.12289E-04  7804   0.141E-02    0.596E-02
RMM:   8    -0.390601257606E+03    0.63271E-05   -0.45621E-05  6097   0.871E-03
  21 F= -.39060126E+03 E0= -.39058805E+03  d E =-.966100E-02
 trial-energy change:   -0.009661  1 .order   -0.009590   -0.010429   -0.008751
 step:   0.2458(harm=  0.4136)  dis= 0.01945  next Energy=  -390.614431 (dE=-0.228E-01)
 bond charge predicted
       N       E                     dE             d eps       ncg     rms          rms(c)
DAV:   1    -0.390612412208E+03   -0.11148E-01   -0.46696E+00  7840   0.282E+00    0.434E-01
RMM:   2    -0.390620652751E+03   -0.82405E-02   -0.77019E-02  7929   0.418E-01    0.590E-01
RMM:   3    -0.390625859452E+03   -0.52067E-02   -0.60046E-03  7968   0.963E-02    0.104E+00
RMM:   4    -0.390619394954E+03    0.64645E-02   -0.30344E-03  7907   0.682E-02    0.445E-01
RMM:   5    -0.390619535581E+03   -0.14063E-03   -0.24268E-03  7868   0.614E-02    0.475E-01
RMM:   6    -0.390618540426E+03    0.99515E-03   -0.14428E-03  7875   0.481E-02    0.246E-01
RMM:   7    -0.390618287598E+03    0.25283E-03   -0.76151E-04  7862   0.352E-02    0.164E-01
RMM:   8    -0.390618147996E+03    0.13960E-03   -0.28756E-04  7844   0.214E-02    0.101E-01
RMM:   9    -0.390618077148E+03    0.70849E-04   -0.85542E-05  7649   0.121E-02    0.432E-02
RMM:  10    -0.390618074215E+03    0.29330E-05   -0.17932E-05  4356   0.587E-03
  22 F= -.39061807E+03 E0= -.39060499E+03  d E =-.264776E-01
 curvature:  -0.78 expect dE=-0.159E-01 dE for cont linesearch -0.291E-02
 ZBRENT: increasing intervall
 opt :   0.6043  next Energy=  -390.609387 (dE=-0.178E-01)
 bond charge predicted
       N       E                     dE             d eps       ncg     rms          rms(c)
DAV:   1    -0.390581660792E+03    0.36416E-01   -0.18771E+01  7840   0.570E+00    0.894E-01
RMM:   2    -0.390615819327E+03   -0.34159E-01   -0.32582E-01  7924   0.851E-01    0.116E+00
RMM:   3    -0.390640612635E+03   -0.24793E-01   -0.25089E-02  7967   0.197E-01    0.219E+00
RMM:   4    -0.390611347938E+03    0.29265E-01   -0.12620E-02  7911   0.139E-01    0.892E-01
RMM:   5    -0.390610872228E+03    0.47571E-03   -0.10237E-02  7871   0.127E-01    0.902E-01
RMM:   6    -0.390607911292E+03    0.29609E-02   -0.58856E-03  7880   0.968E-02    0.577E-01
RMM:   7    -0.390606134308E+03    0.17770E-02   -0.31558E-03  7872   0.717E-02    0.302E-01
RMM:   8    -0.390605679101E+03    0.45521E-03   -0.11366E-03  7871   0.430E-02    0.188E-01
RMM:   9    -0.390605441548E+03    0.23755E-03   -0.32513E-04  7855   0.235E-02    0.811E-02
RMM:  10    -0.390605434379E+03    0.71685E-05   -0.83888E-05  7566   0.118E-02
  23 F= -.39060543E+03 E0= -.39059247E+03  d E =-.138378E-01
 curvature:   2.32 expect dE= 0.542E+00 dE for cont linesearch  0.518E-01
 ZBRENT: bracketing found
 ZBRENT: interpolating
 opt :   0.3500  next Energy=  -390.620869 (dE=-0.293E-01)
 bond charge predicted
       N       E                     dE             d eps       ncg     rms          rms(c)
DAV:   1    -0.390607551563E+03   -0.21100E-02   -0.94587E+00  7840   0.416E+00    0.658E-01
RMM:   2    -0.390627056588E+03   -0.19505E-01   -0.18427E-01  7934   0.611E-01    0.847E-01
RMM:   3    -0.390640964032E+03   -0.13907E-01   -0.13875E-02  7954   0.146E-01    0.164E+00
RMM:   4    -0.390626755639E+03    0.14208E-01   -0.72672E-03  7916   0.103E-01    0.877E-01
RMM:   5    -0.390623984875E+03    0.27708E-02   -0.53162E-03  7871   0.908E-02    0.641E-01
RMM:   6    -0.390622549675E+03    0.14352E-02   -0.33963E-03  7877   0.738E-02    0.399E-01
RMM:   7    -0.390621925813E+03    0.62386E-03   -0.17620E-03  7871   0.530E-02    0.282E-01
RMM:   8    -0.390621445544E+03    0.48027E-03   -0.78778E-04  7862   0.356E-02    0.142E-01
RMM:   9    -0.390621320213E+03    0.12533E-03   -0.21971E-04  7838   0.193E-02    0.848E-02
RMM:  10    -0.390621284074E+03    0.36139E-04   -0.58706E-05  7040   0.998E-03    0.504E-02
RMM:  11    -0.390621271836E+03    0.12238E-04   -0.20981E-05  4389   0.625E-03    0.291E-02
RMM:  12    -0.390621267349E+03    0.44867E-05   -0.11606E-05  4189   0.503E-03
  24 F= -.39062127E+03 E0= -.39060822E+03  d E =-.296707E-01
 curvature:  -0.13 expect dE=-0.291E-02 dE for cont linesearch -0.420E-05
 trial: gam= 0.24636 g(F)=  0.233E-01 g(S)=  0.000E+00 ort = 0.508E-02 (trialstep = 0.123E+00)
 search vector abs. value=  0.724E-01
 bond charge predicted
       N       E                     dE             d eps       ncg     rms          rms(c)
DAV:   1    -0.390623689588E+03   -0.24178E-02   -0.21659E-01  7888   0.620E-01    0.757E-02
RMM:   2    -0.390624119037E+03   -0.42945E-03   -0.38645E-03  7915   0.896E-02    0.122E-01
RMM:   3    -0.390624166338E+03   -0.47300E-04   -0.26804E-04  7913   0.213E-02    0.155E-01
RMM:   4    -0.390624128019E+03    0.38319E-04   -0.91213E-05  7457   0.115E-02    0.139E-01
RMM:   5    -0.390624010130E+03    0.11789E-03   -0.61806E-05  7076   0.101E-02    0.516E-02
RMM:   6    -0.390624006764E+03    0.33661E-05   -0.48416E-05  6205   0.910E-03
  25 F= -.39062401E+03 E0= -.39061094E+03  d E =-.273941E-02
 ZBRENT: can't locate minimum, use default step
 trial-energy change:   -0.002739  1 .order   -0.002720   -0.003021   -0.002418
 step:   0.4929(harm=  0.6176)  dis= 0.01319  next Energy=  -390.628839 (dE=-0.757E-02)
 bond charge predicted
       N       E                     dE             d eps       ncg     rms          rms(c)
DAV:   1    -0.390625900916E+03   -0.18908E-02   -0.19469E+00  7840   0.185E+00    0.224E-01
RMM:   2    -0.390629487323E+03   -0.35864E-02   -0.34079E-02  7920   0.267E-01    0.329E-01
RMM:   3    -0.390628968357E+03    0.51897E-03   -0.21711E-03  7959   0.612E-02    0.221E-01
RMM:   4    -0.390630102841E+03   -0.11345E-02   -0.76436E-04  7929   0.343E-02    0.455E-01
RMM:   5    -0.390629016166E+03    0.10867E-02   -0.40899E-04  7889   0.235E-02    0.257E-01
RMM:   6    -0.390628750512E+03    0.26565E-03   -0.44614E-04  7852   0.262E-02    0.140E-01
RMM:   7    -0.390628715729E+03    0.34783E-04   -0.26342E-04  7847   0.208E-02    0.118E-01
RMM:   8    -0.390628624862E+03    0.90867E-04   -0.83388E-05  7736   0.118E-02    0.447E-02
RMM:   9    -0.390628615113E+03    0.97491E-05   -0.19978E-05  4372   0.604E-03
  26 F= -.39062862E+03 E0= -.39061553E+03  d E =-.734776E-02
 curvature:  -0.85 expect dE=-0.268E-01 dE for cont linesearch -0.327E-03
 trial: gam= 1.17964 g(F)=  0.314E-01 g(S)=  0.000E+00 ort = 0.527E-02 (trialstep = 0.988E-01)
 search vector abs. value=  0.145E+00
 bond charge predicted
       N       E                     dE             d eps       ncg     rms          rms(c)
DAV:   1    -0.390631446376E+03   -0.28215E-02   -0.26417E-01  7856   0.688E-01    0.950E-02
RMM:   2    -0.390631939012E+03   -0.49264E-03   -0.49314E-03  7920   0.104E-01    0.114E-01
RMM:   3    -0.390631898049E+03    0.40963E-04   -0.35207E-04  7918   0.247E-02    0.107E-01
RMM:   4    -0.390632134090E+03   -0.23604E-03   -0.14634E-04  7892   0.148E-02    0.208E-01
RMM:   5    -0.390631899889E+03    0.23420E-03   -0.87840E-05  7293   0.110E-02    0.112E-01
RMM:   6    -0.390631857700E+03    0.42188E-04   -0.83918E-05  7740   0.116E-02    0.682E-02
RMM:   7    -0.390631844647E+03    0.13053E-04   -0.45713E-05  5995   0.871E-03    0.478E-02
RMM:   8    -0.390631830387E+03    0.14260E-04   -0.19959E-05  4328   0.640E-03    0.189E-02
RMM:   9    -0.390631829048E+03    0.13394E-05   -0.54973E-06  4107   0.349E-03
  27 F= -.39063183E+03 E0= -.39061875E+03  d E =-.321393E-02
 trial-energy change:   -0.003214  1 .order   -0.003163   -0.003711   -0.002615
 step:   0.2395(harm=  0.3344)  dis= 0.00714  next Energy=  -390.633839 (dE=-0.522E-02)
 bond charge predicted
       N       E                     dE             d eps       ncg     rms          rms(c)
DAV:   1    -0.390633733798E+03   -0.19034E-02   -0.53720E-01  7840   0.984E-01    0.132E-01
RMM:   2    -0.390634696592E+03   -0.96279E-03   -0.99774E-03  7922   0.148E-01    0.155E-01
RMM:   3    -0.390635136872E+03   -0.44028E-03   -0.69330E-04  7939   0.340E-02    0.306E-01
RMM:   4    -0.390634738745E+03    0.39813E-03   -0.27876E-04  7922   0.202E-02    0.197E-01
RMM:   5    -0.390634562169E+03    0.17658E-03   -0.22959E-04  7840   0.189E-02    0.132E-01
RMM:   6    -0.390634515228E+03    0.46941E-04   -0.16103E-04  7835   0.161E-02    0.833E-02
RMM:   7    -0.390634474318E+03    0.40910E-04   -0.87169E-05  7700   0.121E-02    0.448E-02
RMM:   8    -0.390634462231E+03    0.12087E-04   -0.28777E-05  4757   0.732E-03    0.300E-02
RMM:   9    -0.390634459712E+03    0.25188E-05   -0.82509E-06  4130   0.423E-03
  28 F= -.39063446E+03 E0= -.39062138E+03  d E =-.584460E-02
 curvature:  -0.54 expect dE=-0.858E-02 dE for cont linesearch -0.411E-03
 ZBRENT: increasing intervall
 opt :   0.5210  next Energy=  -390.632918 (dE=-0.430E-02)
 bond charge predicted
       N       E                     dE             d eps       ncg     rms          rms(c)
DAV:   1    -0.390629765922E+03    0.46963E-02   -0.21512E+00  7840   0.198E+00    0.263E-01
RMM:   2    -0.390633801049E+03   -0.40351E-02   -0.41364E-02  7924   0.300E-01    0.316E-01
RMM:   3    -0.390635089389E+03   -0.12883E-02   -0.27766E-03  7923   0.684E-02    0.560E-01
RMM:   4    -0.390634190769E+03    0.89862E-03   -0.10930E-03  7956   0.397E-02    0.438E-01
RMM:   5    -0.390633172474E+03    0.10183E-02   -0.91058E-04  7868   0.374E-02    0.262E-01
RMM:   6    -0.390633003142E+03    0.16933E-03   -0.66236E-04  7859   0.326E-02    0.169E-01
RMM:   7    -0.390632834068E+03    0.16907E-03   -0.36156E-04  7855   0.245E-02    0.910E-02
RMM:   8    -0.390632791650E+03    0.42418E-04   -0.13195E-04  7835   0.149E-02    0.650E-02
RMM:   9    -0.390632777534E+03    0.14116E-04   -0.32699E-05  5004   0.771E-03    0.446E-02
RMM:  10    -0.390632770559E+03    0.69755E-05   -0.12462E-05  4200   0.517E-03
  29 F= -.39063277E+03 E0= -.39061968E+03  d E =-.415545E-02
 curvature:   2.02 expect dE= 0.222E+00 dE for cont linesearch  0.726E-02
 ZBRENT: bracketing found
 ZBRENT: interpolating
 opt :   0.3283  next Energy=  -390.634926 (dE=-0.631E-02)
 bond charge predicted
       N       E                     dE             d eps       ncg     rms          rms(c)
DAV:   1    -0.390633354487E+03   -0.57695E-03   -0.10079E+00  7856   0.137E+00    0.183E-01
RMM:   2    -0.390635485526E+03   -0.21310E-02   -0.20858E-02  7914   0.207E-01    0.228E-01
RMM:   3    -0.390635809279E+03   -0.32375E-03   -0.13395E-03  7920   0.475E-02    0.341E-01
RMM:   4    -0.390635785086E+03    0.24193E-04   -0.51794E-04  7951   0.270E-02    0.343E-01
RMM:   5    -0.390635136549E+03    0.64854E-03   -0.42675E-04  7855   0.254E-02    0.179E-01
RMM:   6    -0.390635076838E+03    0.59710E-04   -0.33197E-04  7849   0.231E-02    0.117E-01
RMM:   7    -0.390635015089E+03    0.61749E-04   -0.18690E-04  7840   0.175E-02    0.747E-02
RMM:   8    -0.390634989826E+03    0.25263E-04   -0.72322E-05  7482   0.109E-02    0.525E-02
RMM:   9    -0.390634977324E+03    0.12502E-04   -0.20078E-05  4389   0.613E-03    0.323E-02
RMM:  10    -0.390634971498E+03    0.58262E-05   -0.72995E-06  4128   0.404E-03
  30 F= -.39063497E+03 E0= -.39062187E+03  d E =-.635638E-02
 curvature:  -0.13 expect dE=-0.433E-02 dE for cont linesearch -0.299E-08
 trial: gam= 1.37879 g(F)=  0.334E-01 g(S)=  0.000E+00 ort =-0.577E-04 (trialstep = 0.679E-01)
 search vector abs. value=  0.308E+00
 bond charge predicted
       N       E                     dE             d eps       ncg     rms          rms(c)
DAV:   1    -0.390636626227E+03   -0.16489E-02   -0.27569E-01  7872   0.713E-01    0.751E-02
RMM:   2    -0.390637172192E+03   -0.54597E-03   -0.50231E-03  7927   0.107E-01    0.123E-01
RMM:   3    -0.390637179396E+03   -0.72037E-05   -0.32938E-04  7950   0.240E-02    0.145E-01
RMM:   4    -0.390637150635E+03    0.28760E-04   -0.97765E-05  7525   0.121E-02    0.133E-01
RMM:   5    -0.390637053335E+03    0.97300E-04   -0.61129E-05  7039   0.988E-03    0.727E-02
RMM:   6    -0.390637036976E+03    0.16359E-04   -0.44560E-05  5991   0.883E-03    0.443E-02
RMM:   7    -0.390637048023E+03   -0.11046E-04   -0.52874E-05  6704   0.956E-03    0.515E-02
RMM:   8    -0.390637031183E+03    0.16840E-04   -0.22302E-05  4375   0.674E-03    0.241E-02
RMM:   9    -0.390637027544E+03    0.36396E-05   -0.57351E-06  4054   0.364E-03
  31 F= -.39063703E+03 E0= -.39062392E+03  d E =-.205605E-02
 trial-energy change:   -0.002056  1 .order   -0.001990   -0.002260   -0.001721
 step:   0.1505(harm=  0.2848)  dis= 0.00709  next Energy=  -390.638193 (dE=-0.322E-02)
 bond charge predicted
       N       E                     dE             d eps       ncg     rms          rms(c)
DAV:   1    -0.390638210567E+03   -0.11794E-02   -0.40735E-01  7840   0.866E-01    0.920E-02
RMM:   2    -0.390639004405E+03   -0.79384E-03   -0.74902E-03  7929   0.131E-01    0.139E-01
RMM:   3    -0.390639142716E+03   -0.13831E-03   -0.49797E-04  7989   0.292E-02    0.210E-01
RMM:   4    -0.390638957833E+03    0.18488E-03   -0.15892E-04  7875   0.155E-02    0.139E-01
RMM:   5    -0.390638870548E+03    0.87285E-04   -0.96764E-05  7777   0.123E-02    0.927E-02
RMM:   6    -0.390638841837E+03    0.28711E-04   -0.59935E-05  7091   0.991E-03    0.519E-02
RMM:   7    -0.390638850440E+03   -0.86030E-05   -0.72312E-05  7522   0.110E-02
  32 F= -.39063885E+03 E0= -.39062575E+03  d E =-.387894E-02
 curvature:  -0.81 expect dE=-0.147E-01 dE for cont linesearch -0.783E-03
 ZBRENT: increasing intervall
 opt :   0.3157  next Energy=  -390.640353 (dE=-0.538E-02)
 bond charge predicted
       N       E                     dE             d eps       ncg     rms          rms(c)
DAV:   1    -0.390637902075E+03    0.93976E-03   -0.16296E+00  7840   0.173E+00    0.185E-01
RMM:   2    -0.390641148811E+03   -0.32467E-02   -0.29659E-02  7927   0.261E-01    0.302E-01
RMM:   3    -0.390641449713E+03   -0.30090E-03   -0.20069E-03  7976   0.590E-02    0.392E-01
RMM:   4    -0.390640947599E+03    0.50211E-03   -0.61701E-04  7972   0.303E-02    0.296E-01
RMM:   5    -0.390640520231E+03    0.42737E-03   -0.37254E-04  7862   0.241E-02    0.186E-01
RMM:   6    -0.390640396220E+03    0.12401E-03   -0.25803E-04  7846   0.203E-02    0.104E-01
RMM:   7    -0.390640453043E+03   -0.56823E-04   -0.29744E-04  7846   0.219E-02    0.114E-01
RMM:   8    -0.390640357933E+03    0.95110E-04   -0.12175E-04  7834   0.142E-02    0.474E-02
RMM:   9    -0.390640344319E+03    0.13614E-04   -0.16668E-05  4340   0.564E-03    0.230E-02
RMM:  10    -0.390640341737E+03    0.25815E-05   -0.79270E-06  4124   0.395E-03
  33 F= -.39064034E+03 E0= -.39062717E+03  d E =-.537024E-02
 curvature:  -1.56 expect dE=-0.178E-01 dE for cont linesearch -0.117E-05
 trial: gam=-0.09188 g(F)=  0.114E-01 g(S)=  0.000E+00 ort =-0.480E-03 (trialstep = 0.117E+00)
 search vector abs. value=  0.141E-01
 bond charge predicted
       N       E                     dE             d eps       ncg     rms          rms(c)
DAV:   1    -0.390641368185E+03   -0.10239E-02   -0.44005E-02  7920   0.279E-01    0.543E-02
RMM:   2    -0.390641465264E+03   -0.97079E-04   -0.98465E-04  7937   0.453E-02    0.671E-02
RMM:   3    -0.390641544344E+03   -0.79080E-04   -0.87032E-05  7430   0.118E-02    0.131E-01
RMM:   4    -0.390641462717E+03    0.81627E-04   -0.39983E-05  5467   0.788E-03    0.789E-02
RMM:   5    -0.390641435166E+03    0.27551E-04   -0.36949E-05  5078   0.816E-03    0.481E-02
RMM:   6    -0.390641428388E+03    0.67773E-05   -0.25956E-05  4508   0.725E-03
  34 F= -.39064143E+03 E0= -.39062823E+03  d E =-.108665E-02
 trial-energy change:   -0.001087  1 .order   -0.001087   -0.001348   -0.000826
 step:   0.3034(harm=  0.3034)  dis= 0.00354  next Energy=  -390.642082 (dE=-0.174E-02)
 bond charge predicted
       N       E                     dE             d eps       ncg     rms          rms(c)
DAV:   1    -0.390641920568E+03   -0.48540E-03   -0.11006E-01  7872   0.440E-01    0.894E-02
RMM:   2    -0.390642168525E+03   -0.24796E-03   -0.24232E-03  7937   0.713E-02    0.116E-01
RMM:   3    -0.390642294915E+03   -0.12639E-03   -0.22580E-04  7911   0.190E-02    0.185E-01
RMM:   4    -0.390642284422E+03    0.10494E-04   -0.12310E-04  7714   0.129E-02    0.180E-01
RMM:   5    -0.390642071909E+03    0.21251E-03   -0.11362E-04  7810   0.133E-02    0.646E-02
RMM:   6    -0.390642082474E+03   -0.10564E-04   -0.65210E-05  7063   0.102E-02    0.724E-02
RMM:   7    -0.390642042107E+03    0.40367E-04   -0.26895E-05  4591   0.703E-03    0.221E-02
RMM:   8    -0.390642040605E+03    0.15018E-05   -0.77162E-06  4099   0.410E-03
  35 F= -.39064204E+03 E0= -.39062886E+03  d E =-.169887E-02
 curvature:  -0.19 expect dE=-0.349E-02 dE for cont linesearch -0.463E-06
 trial: gam= 1.65167 g(F)=  0.187E-01 g(S)=  0.000E+00 ort =-0.187E-03 (trialstep = 0.386E-01)
 search vector abs. value=  0.566E-01
 bond charge predicted
       N       E                     dE             d eps       ncg     rms          rms(c)
DAV:   1    -0.390642707487E+03   -0.66538E-03   -0.18231E-02  7936   0.181E-01    0.217E-02
RMM:   2    -0.390642746358E+03   -0.38871E-04   -0.26662E-04  7865   0.274E-02    0.492E-02
RMM:   3    -0.390642737733E+03    0.86249E-05   -0.19142E-05  4337   0.645E-03
  36 F= -.39064274E+03 E0= -.39062957E+03  d E =-.697128E-03
 ZBRENT: can't locate minimum, use default step
 trial-energy change:   -0.000697  1 .order   -0.000675   -0.000710   -0.000640
 step:   0.1543(harm=  0.3903)  dis= 0.00333  next Energy=  -390.645631 (dE=-0.359E-02)
 bond charge predicted
       N       E                     dE             d eps       ncg     rms          rms(c)
DAV:   1    -0.390644314668E+03   -0.15683E-02   -0.16501E-01  7856   0.542E-01    0.798E-02
RMM:   2    -0.390647079590E+03   -0.27649E-02   -0.26365E-03  7880   0.839E-02    0.604E-01
RMM:   3    -0.390644491096E+03    0.25885E-02   -0.45830E-04  7939   0.265E-02    0.941E-02
RMM:   4    -0.390644512951E+03   -0.21855E-04   -0.74147E-05  7314   0.116E-02    0.634E-02
RMM:   5    -0.390644505840E+03    0.71103E-05   -0.59841E-05  7244   0.987E-03
  37 F= -.39064451E+03 E0= -.39063135E+03  d E =-.246524E-02
 curvature:  -0.33 expect dE=-0.354E-02 dE for cont linesearch -0.103E-02
 ZBRENT: increasing intervall
 opt :   0.3857  next Energy=  -390.646810 (dE=-0.477E-02)
 bond charge predicted
       N       E                     dE             d eps       ncg     rms          rms(c)
DAV:   1    -0.390645855861E+03   -0.13429E-02   -0.65869E-01  7840   0.109E+00    0.131E-01
RMM:   2    -0.390646710344E+03   -0.85448E-03   -0.89272E-03  7880   0.161E-01    0.128E-01
RMM:   3    -0.390646898061E+03   -0.18772E-03   -0.75312E-04  7975   0.365E-02    0.205E-01
RMM:   4    -0.390646682195E+03    0.21587E-03   -0.22987E-04  7913   0.199E-02    0.984E-02
RMM:   5    -0.390646899913E+03   -0.21772E-03   -0.10134E-04  7592   0.117E-02    0.200E-01
RMM:   6    -0.390646673475E+03    0.22644E-03   -0.11825E-04  7784   0.131E-02    0.868E-02
RMM:   7    -0.390646635652E+03    0.37823E-04   -0.66288E-05  7267   0.107E-02    0.391E-02
RMM:   8    -0.390646626479E+03    0.91728E-05   -0.15681E-05  4254   0.556E-03
  38 F= -.39064663E+03 E0= -.39063344E+03  d E =-.458587E-02
 curvature:  -0.74 expect dE=-0.324E-02 dE for cont linesearch -0.356E-03
 ZBRENT: increasing intervall
 opt :   0.8486  next Energy=  -390.645311 (dE=-0.327E-02)
 bond charge predicted
       N       E                     dE             d eps       ncg     rms          rms(c)
DAV:   1    -0.390642311333E+03    0.43243E-02   -0.26305E+00  7840   0.217E+00    0.234E-01
RMM:   2    -0.390645877015E+03   -0.35657E-02   -0.36490E-02  7881   0.324E-01    0.271E-01
RMM:   3    -0.390645791307E+03    0.85708E-04   -0.27089E-03  7991   0.701E-02    0.220E-01
RMM:   4    -0.390646594676E+03   -0.80337E-03   -0.93136E-04  7919   0.380E-02    0.421E-01
RMM:   5    -0.390646278976E+03    0.31570E-03   -0.48966E-04  7906   0.255E-02    0.368E-01
RMM:   6    -0.390645473875E+03    0.80510E-03   -0.43467E-04  7856   0.255E-02    0.137E-01
RMM:   7    -0.390645504971E+03   -0.31096E-04   -0.37562E-04  7857   0.247E-02    0.126E-01
RMM:   8    -0.390645385919E+03    0.11905E-03   -0.14265E-04  7842   0.155E-02    0.512E-02
RMM:   9    -0.390645374157E+03    0.11762E-04   -0.22785E-05  4568   0.641E-03    0.335E-02
RMM:  10    -0.390645365426E+03    0.87314E-05   -0.15605E-05  4148   0.546E-03
  39 F= -.39064537E+03 E0= -.39063219E+03  d E =-.332482E-02
 curvature:   2.74 expect dE= 0.422E-01 dE for cont linesearch  0.599E-02
 ZBRENT: bracketing found
 ZBRENT: interpolating
 opt :   0.5334  next Energy=  -390.647012 (dE=-0.497E-02)
 bond charge predicted
       N       E                     dE             d eps       ncg     rms          rms(c)
DAV:   1    -0.390645608433E+03   -0.23428E-03   -0.12209E+00  7840   0.148E+00    0.158E-01
RMM:   2    -0.390647225920E+03   -0.16175E-02   -0.16618E-02  7878   0.219E-01    0.174E-01
RMM:   3    -0.390647469359E+03   -0.24344E-03   -0.12385E-03  7996   0.471E-02    0.240E-01
RMM:   4    -0.390648090980E+03   -0.62162E-03   -0.45458E-04  7951   0.250E-02    0.386E-01
RMM:   5    -0.390647147705E+03    0.94328E-03   -0.34300E-04  7866   0.224E-02    0.163E-01
RMM:   6    -0.390647053010E+03    0.94695E-04   -0.20713E-04  7841   0.182E-02    0.836E-02
RMM:   7    -0.390647071615E+03   -0.18606E-04   -0.16748E-04  7840   0.165E-02    0.850E-02
RMM:   8    -0.390647016614E+03    0.55001E-04   -0.56495E-05  6875   0.983E-03    0.325E-02
RMM:   9    -0.390647012552E+03    0.40619E-05   -0.11136E-05  4204   0.459E-03
  40 F= -.39064701E+03 E0= -.39063385E+03  d E =-.497195E-02
 curvature:  -0.18 expect dE=-0.792E-03 dE for cont linesearch -0.313E-09
 trial: gam= 0.16249 g(F)=  0.449E-02 g(S)=  0.000E+00 ort = 0.100E-04 (trialstep = 0.138E+00)
 search vector abs. value=  0.599E-02
 bond charge predicted
       N       E                     dE             d eps       ncg     rms          rms(c)
DAV:   1    -0.390647615386E+03   -0.59877E-03   -0.15402E-02  7872   0.165E-01    0.263E-02
RMM:   2    -0.390647652628E+03   -0.37242E-04   -0.27314E-04  7887   0.253E-02    0.487E-02
RMM:   3    -0.390647649897E+03    0.27302E-05   -0.25438E-05  4542   0.705E-03
  41 F= -.39064765E+03 E0= -.39063448E+03  d E =-.637345E-03
 ZBRENT: can't locate minimum, use default step
 trial-energy change:   -0.000637  1 .order   -0.000603   -0.000618   -0.000588
 step:   0.5502(harm=  2.7975)  dis= 0.00397  next Energy=  -390.653302 (dE=-0.629E-02)
 bond charge predicted
       N       E                     dE             d eps       ncg     rms          rms(c)
DAV:   1    -0.390649213879E+03   -0.15613E-02   -0.13871E-01  7840   0.495E-01    0.865E-02
RMM:   2    -0.390651048906E+03   -0.18350E-02   -0.26007E-03  7916   0.768E-02    0.483E-01
RMM:   3    -0.390649452124E+03    0.15968E-02   -0.37727E-04  7942   0.240E-02    0.130E-01
RMM:   4    -0.390649418886E+03    0.33238E-04   -0.11237E-04  7856   0.137E-02    0.867E-02
RMM:   5    -0.390649402003E+03    0.16884E-04   -0.66817E-05  7316   0.105E-02    0.578E-02
RMM:   6    -0.390649398020E+03    0.39823E-05   -0.52804E-05  6546   0.943E-03
  42 F= -.39064940E+03 E0= -.39063618E+03  d E =-.238547E-02
 curvature:  -0.53 expect dE=-0.190E-02 dE for cont linesearch -0.136E-02
 ZBRENT: increasing intervall
 opt :   1.3755  next Energy=  -390.652320 (dE=-0.531E-02)
 bond charge predicted
       N       E                     dE             d eps       ncg     rms          rms(c)
DAV:   1    -0.390651493093E+03   -0.20911E-02   -0.55244E-01  7840   0.987E-01    0.142E-01
RMM:   2    -0.390652681162E+03   -0.11881E-02   -0.92271E-03  7918   0.147E-01    0.250E-01
RMM:   3    -0.390653009326E+03   -0.32816E-03   -0.79114E-04  7968   0.353E-02    0.335E-01
RMM:   4    -0.390652552823E+03    0.45650E-03   -0.35926E-04  7908   0.228E-02    0.220E-01
RMM:   5    -0.390652295895E+03    0.25693E-03   -0.21190E-04  7856   0.186E-02    0.939E-02
RMM:   6    -0.390652313909E+03   -0.18014E-04   -0.14468E-04  7839   0.150E-02    0.886E-02
RMM:   7    -0.390652285009E+03    0.28900E-04   -0.79881E-05  7610   0.114E-02    0.557E-02
RMM:   8    -0.390652272890E+03    0.12120E-04   -0.30155E-05  4965   0.730E-03    0.373E-02
RMM:   9    -0.390652265491E+03    0.73984E-05   -0.11026E-05  4139   0.488E-03
  43 F= -.39065227E+03 E0= -.39063905E+03  d E =-.525294E-02
 curvature:  -1.15 expect dE=-0.361E-02 dE for cont linesearch -0.152E-02
 ZBRENT: increasing intervall
 opt :   3.0261  next Energy=  -390.655120 (dE=-0.811E-02)
 bond charge predicted
       N       E                     dE             d eps       ncg     rms          rms(c)
DAV:   1    -0.390652609329E+03   -0.33644E-03   -0.22087E+00  7840   0.197E+00    0.275E-01
RMM:   2    -0.390656987736E+03   -0.43784E-02   -0.36876E-02  7921   0.295E-01    0.422E-01
RMM:   3    -0.390659438260E+03   -0.24505E-02   -0.31083E-03  7971   0.694E-02    0.736E-01
RMM:   4    -0.390656448176E+03    0.29901E-02   -0.14073E-03  7911   0.460E-02    0.360E-01
RMM:   5    -0.390655890900E+03    0.55728E-03   -0.78265E-04  7874   0.355E-02    0.210E-01
RMM:   6    -0.390655794775E+03    0.96124E-04   -0.55916E-04  7853   0.298E-02    0.139E-01
RMM:   7    -0.390655748187E+03    0.46588E-04   -0.29923E-04  7848   0.221E-02    0.982E-02
RMM:   8    -0.390655709531E+03    0.38656E-04   -0.13209E-04  7840   0.148E-02    0.729E-02
RMM:   9    -0.390655682784E+03    0.26746E-04   -0.37177E-05  5339   0.811E-03    0.409E-02
RMM:  10    -0.390655672796E+03    0.99882E-05   -0.12659E-05  4171   0.514E-03
  44 F= -.39065567E+03 E0= -.39064245E+03  d E =-.866024E-02
 curvature:  -2.15 expect dE=-0.148E-01 dE for cont linesearch -0.321E-03
 trial: gam= 1.31271 g(F)=  0.689E-02 g(S)=  0.000E+00 ort = 0.946E-03 (trialstep = 0.218E+00)
 search vector abs. value=  0.197E-01
 bond charge predicted
       N       E                     dE             d eps       ncg     rms          rms(c)
DAV:   1    -0.390656695374E+03   -0.10126E-02   -0.14263E-01  7872   0.482E-01    0.871E-02
RMM:   2    -0.390657031395E+03   -0.33602E-03   -0.34845E-03  7920   0.769E-02    0.987E-02
RMM:   3    -0.390657265368E+03   -0.23397E-03   -0.27030E-04  7908   0.208E-02    0.213E-01
RMM:   4    -0.390657087697E+03    0.17767E-03   -0.12192E-04  7700   0.133E-02    0.150E-01
RMM:   5    -0.390656963164E+03    0.12453E-03   -0.85338E-05  7649   0.117E-02    0.614E-02
RMM:   6    -0.390656963127E+03    0.36351E-07   -0.60647E-05  6867   0.990E-03
  45 F= -.39065696E+03 E0= -.39064370E+03  d E =-.129033E-02
 trial-energy change:   -0.001290  1 .order   -0.001210   -0.001770   -0.000651
 step:   0.2973(harm=  0.3440)  dis= 0.00393  next Energy=  -390.657086 (dE=-0.141E-02)
 bond charge predicted
       N       E                     dE             d eps       ncg     rms          rms(c)
DAV:   1    -0.390657086819E+03   -0.12366E-03   -0.19151E-02  7968   0.178E-01    0.490E-02
RMM:   2    -0.390657289217E+03   -0.20240E-03   -0.55770E-04  7898   0.315E-02    0.151E-01
RMM:   3    -0.390657232875E+03    0.56342E-04   -0.10125E-04  7714   0.125E-02    0.135E-01
RMM:   4    -0.390657118825E+03    0.11405E-03   -0.34175E-05  5198   0.732E-03    0.477E-02
RMM:   5    -0.390657121846E+03   -0.30205E-05   -0.20555E-05  4438   0.639E-03
  46 F= -.39065712E+03 E0= -.39064392E+03  d E =-.144905E-02
 curvature:  -0.36 expect dE=-0.436E-02 dE for cont linesearch -0.191E-04
 trial: gam= 1.81991 g(F)=  0.121E-01 g(S)=  0.000E+00 ort = 0.102E-02 (trialstep = 0.567E-01)
 search vector abs. value=  0.811E-01
 bond charge predicted
       N       E                     dE             d eps       ncg     rms          rms(c)
DAV:   1    -0.390657866703E+03   -0.74788E-03   -0.34348E-02  7888   0.243E-01    0.377E-02
RMM:   2    -0.390657989128E+03   -0.12243E-03   -0.68028E-04  7911   0.371E-02    0.988E-02
RMM:   3    -0.390657972428E+03    0.16700E-04   -0.62140E-05  6487   0.103E-02    0.927E-02
RMM:   4    -0.390657927147E+03    0.45281E-04   -0.23242E-05  4563   0.656E-03    0.449E-02
RMM:   5    -0.390657920777E+03    0.63694E-05   -0.11536E-05  4144   0.512E-03
  47 F= -.39065792E+03 E0= -.39064468E+03  d E =-.798931E-03
 ZBRENT: can't locate minimum, use default step
 trial-energy change:   -0.000799  1 .order   -0.000775   -0.000793   -0.000758
 step:   0.2269(harm=  1.2740)  dis= 0.00665  next Energy=  -390.666027 (dE=-0.891E-02)
 bond charge predicted
       N       E                     dE             d eps       ncg     rms          rms(c)
DAV:   1    -0.390659648716E+03   -0.17216E-02   -0.30932E-01  7840   0.726E-01    0.990E-02
RMM:   2    -0.390660260317E+03   -0.61160E-03   -0.58375E-03  7927   0.109E-01    0.139E-01
RMM:   3    -0.390660506540E+03   -0.24622E-03   -0.46748E-04  7961   0.278E-02    0.239E-01
RMM:   4    -0.390660329858E+03    0.17668E-03   -0.16296E-04  7866   0.154E-02    0.184E-01
RMM:   5    -0.390660128190E+03    0.20167E-03   -0.91974E-05  7785   0.123E-02    0.587E-02
RMM:   6    -0.390660146967E+03   -0.18778E-04   -0.67782E-05  7132   0.104E-02    0.636E-02
RMM:   7    -0.390660139982E+03    0.69849E-05   -0.51668E-05  6286   0.918E-03
  48 F= -.39066014E+03 E0= -.39064695E+03  d E =-.301814E-02
 curvature:  -0.96 expect dE=-0.976E-02 dE for cont linesearch -0.160E-02
 ZBRENT: increasing intervall
 opt :   0.5672  next Energy=  -390.663502 (dE=-0.638E-02)
 bond charge predicted
       N       E                     dE             d eps       ncg     rms          rms(c)
DAV:   1    -0.390661503329E+03   -0.13564E-02   -0.12365E+00  7840   0.145E+00    0.189E-01
RMM:   2    -0.390664060247E+03   -0.25569E-02   -0.23411E-02  7926   0.217E-01    0.276E-01
RMM:   3    -0.390665869759E+03   -0.18095E-02   -0.18746E-03  7974   0.545E-02    0.588E-01
RMM:   4    -0.390663669919E+03    0.21998E-02   -0.67665E-04  7909   0.328E-02    0.199E-01
RMM:   5    -0.390663519749E+03    0.15017E-03   -0.30114E-04  7862   0.225E-02    0.134E-01
RMM:   6    -0.390663499478E+03    0.20271E-04   -0.19205E-04  7846   0.174E-02    0.107E-01
RMM:   7    -0.390663513587E+03   -0.14109E-04   -0.18715E-04  7836   0.172E-02    0.879E-02
RMM:   8    -0.390663458389E+03    0.55197E-04   -0.79718E-05  7581   0.115E-02    0.378E-02
RMM:   9    -0.390663449657E+03    0.87321E-05   -0.14308E-05  4275   0.522E-03
  49 F= -.39066345E+03 E0= -.39065016E+03  d E =-.632781E-02
 curvature:  -2.02 expect dE=-0.199E-01 dE for cont linesearch -0.133E-02
 ZBRENT: increasing intervall
 opt :   1.2479  next Energy=  -390.665503 (dE=-0.838E-02)
 bond charge predicted
       N       E                     dE             d eps       ncg     rms          rms(c)
DAV:   1    -0.390658516070E+03    0.49423E-02   -0.49523E+00  7840   0.291E+00    0.370E-01
RMM:   2    -0.390668027957E+03   -0.95119E-02   -0.93764E-02  7928   0.434E-01    0.455E-01
RMM:   3    -0.390676316463E+03   -0.82885E-02   -0.72867E-03  7966   0.108E-01    0.118E+00
RMM:   4    -0.390667571614E+03    0.87448E-02   -0.25155E-03  7921   0.625E-02    0.434E-01
RMM:   5    -0.390666659158E+03    0.91246E-03   -0.12575E-03  7865   0.453E-02    0.263E-01
RMM:   6    -0.390666549678E+03    0.10948E-03   -0.77500E-04  7859   0.350E-02    0.194E-01
RMM:   7    -0.390666515517E+03    0.34161E-04   -0.71833E-04  7867   0.338E-02    0.151E-01
RMM:   8    -0.390666389572E+03    0.12595E-03   -0.28236E-04  7848   0.218E-02    0.942E-02
RMM:   9    -0.390666331017E+03    0.58555E-04   -0.63189E-05  7140   0.103E-02    0.442E-02
RMM:  10    -0.390666320404E+03    0.10612E-04   -0.18909E-05  4361   0.597E-03    0.283E-02
RMM:  11    -0.390666315632E+03    0.47718E-05   -0.11335E-05  4197   0.474E-03
  50 F= -.39066632E+03 E0= -.39065304E+03  d E =-.919379E-02
 curvature:  -3.11 expect dE=-0.629E-01 dE for cont linesearch -0.121E-05
 trial: gam= 1.38438 g(F)=  0.202E-01 g(S)=  0.000E+00 ort =-0.177E-03 (trialstep = 0.137E+00)
 search vector abs. value=  0.175E+00
 bond charge predicted
       N       E                     dE             d eps       ncg     rms          rms(c)
DAV:   1    -0.390668401256E+03   -0.20809E-02   -0.36599E-01  7856   0.784E-01    0.120E-01
RMM:   2    -0.390669064100E+03   -0.66284E-03   -0.72239E-03  7928   0.113E-01    0.103E-01
RMM:   3    -0.390669176192E+03   -0.11209E-03   -0.51675E-04  7937   0.291E-02    0.169E-01
RMM:   4    -0.390669349055E+03   -0.17286E-03   -0.19808E-04  7898   0.175E-02    0.228E-01
RMM:   5    -0.390669069888E+03    0.27917E-03   -0.10141E-04  7546   0.119E-02    0.119E-01
RMM:   6    -0.390669026943E+03    0.42945E-04   -0.10154E-04  7808   0.127E-02    0.678E-02
RMM:   7    -0.390669016362E+03    0.10581E-04   -0.53378E-05  6699   0.957E-03    0.499E-02
RMM:   8    -0.390669002739E+03    0.13623E-04   -0.20710E-05  4380   0.638E-03    0.287E-02
RMM:   9    -0.390668999025E+03    0.37133E-05   -0.66170E-06  4099   0.376E-03
  51 F= -.39066900E+03 E0= -.39065570E+03  d E =-.268339E-02
 ZBRENT: can't locate minimum, use default step
 trial-energy change:   -0.002683  1 .order   -0.002524   -0.002728   -0.002320
 step:   0.5463(harm=  0.9130)  dis= 0.02526  next Energy=  -390.675433 (dE=-0.912E-02)
 bond charge predicted
       N       E                     dE             d eps       ncg     rms          rms(c)
DAV:   1    -0.390668612355E+03    0.39038E-03   -0.32937E+00  7840   0.236E+00    0.359E-01
RMM:   2    -0.390674791035E+03   -0.61787E-02   -0.66073E-02  7927   0.341E-01    0.329E-01
RMM:   3    -0.390677741467E+03   -0.29504E-02   -0.49151E-03  7944   0.885E-02    0.748E-01
RMM:   4    -0.390677477665E+03    0.26380E-03   -0.18201E-03  7937   0.506E-02    0.705E-01
RMM:   5    -0.390674305371E+03    0.31723E-02   -0.13376E-03  7867   0.448E-02    0.290E-01
RMM:   6    -0.390674184456E+03    0.12092E-03   -0.91188E-04  7864   0.382E-02    0.198E-01
RMM:   7    -0.390674029674E+03    0.15478E-03   -0.50918E-04  7868   0.293E-02    0.128E-01
RMM:   8    -0.390673948529E+03    0.81146E-04   -0.20103E-04  7843   0.184E-02    0.870E-02
RMM:   9    -0.390673912684E+03    0.35845E-04   -0.52617E-05  6608   0.940E-03    0.456E-02
RMM:  10    -0.390673903023E+03    0.96613E-05   -0.16591E-05  4267   0.574E-03
  52 F= -.39067390E+03 E0= -.39066060E+03  d E =-.758739E-02
 curvature:  -3.11 expect dE=-0.171E+00 dE for cont linesearch -0.471E-03
 ZBRENT: extrapolating
 opt :   0.7246  next Energy=  -390.674362 (dE=-0.805E-02)
 bond charge predicted
       N       E                     dE             d eps       ncg     rms          rms(c)
DAV:   1    -0.390673475865E+03    0.43682E-03   -0.62331E-01  7856   0.104E+00    0.161E-01
RMM:   2    -0.390674774325E+03   -0.12985E-02   -0.13580E-02  7926   0.152E-01    0.165E-01
RMM:   3    -0.390675427011E+03   -0.65269E-03   -0.10244E-03  7939   0.401E-02    0.359E-01
RMM:   4    -0.390675198420E+03    0.22859E-03   -0.37297E-04  7926   0.229E-02    0.305E-01
RMM:   5    -0.390674606864E+03    0.59156E-03   -0.26990E-04  7854   0.205E-02    0.115E-01
RMM:   6    -0.390674625088E+03   -0.18224E-04   -0.17535E-04  7847   0.167E-02    0.997E-02
RMM:   7    -0.390674594176E+03    0.30913E-04   -0.10471E-04  7792   0.132E-02    0.634E-02
RMM:   8    -0.390674573669E+03    0.20506E-04   -0.44023E-05  5953   0.862E-03    0.375E-02
RMM:   9    -0.390674569618E+03    0.40510E-05   -0.12951E-05  4199   0.517E-03
  53 F= -.39067457E+03 E0= -.39066130E+03  d E =-.825399E-02
 curvature:  -3.03 expect dE=-0.276E+00 dE for cont linesearch -0.150E-05
 trial: gam= 4.26859 g(F)=  0.909E-01 g(S)=  0.000E+00 ort = 0.295E-03 (trialstep = 0.136E-01)
 search vector abs. value=  0.328E+01
 bond charge predicted
       N       E                     dE             d eps       ncg     rms          rms(c)
DAV:   1    -0.390675715884E+03   -0.11422E-02   -0.72050E-02  7968   0.355E-01    0.547E-02
RMM:   2    -0.390675892976E+03   -0.17709E-03   -0.16656E-03  7929   0.509E-02    0.647E-02
RMM:   3    -0.390675965928E+03   -0.72952E-04   -0.13049E-04  7859   0.143E-02    0.125E-01
RMM:   4    -0.390675973796E+03   -0.78683E-05   -0.47543E-05  6024   0.833E-03
  54 F= -.39067597E+03 E0= -.39066278E+03  d E =-.140418E-02
 ZBRENT: can't locate minimum, use default step
 trial-energy change:   -0.001404  1 .order   -0.001225   -0.001249   -0.001200
 step:   0.0542(harm=  0.3462)  dis= 0.01097  next Energy=  -390.690529 (dE=-0.160E-01)
 bond charge predicted
       N       E                     dE             d eps       ncg     rms          rms(c)
DAV:   1    -0.390678239803E+03   -0.22739E-02   -0.64920E-01  7840   0.107E+00    0.171E-01
RMM:   2    -0.390679945552E+03   -0.17057E-02   -0.14688E-02  7926   0.152E-01    0.256E-01
RMM:   3    -0.390681300140E+03   -0.13546E-02   -0.11922E-03  7935   0.418E-02    0.519E-01
RMM:   4    -0.390679736376E+03    0.15638E-02   -0.54471E-04  7910   0.287E-02    0.229E-01
RMM:   5    -0.390679488799E+03    0.24758E-03   -0.26241E-04  7854   0.208E-02    0.113E-01
RMM:   6    -0.390679466938E+03    0.21861E-04   -0.16305E-04  7846   0.161E-02    0.774E-02
RMM:   7    -0.390679493096E+03   -0.26158E-04   -0.11341E-04  7824   0.136E-02    0.814E-02
RMM:   8    -0.390679451091E+03    0.42006E-04   -0.45452E-05  6085   0.893E-03    0.377E-02
RMM:   9    -0.390679443814E+03    0.72764E-05   -0.11270E-05  4149   0.471E-03
  55 F= -.39067944E+03 E0= -.39066617E+03  d E =-.487420E-02
 curvature:  -1.42 expect dE=-0.941E-01 dE for cont linesearch -0.258E-02
 ZBRENT: increasing intervall
 opt :   0.1355  next Energy=  -390.684823 (dE=-0.103E-01)
 bond charge predicted
       N       E                     dE             d eps       ncg     rms          rms(c)
DAV:   1    -0.390680211825E+03   -0.76073E-03   -0.26039E+00  7840   0.213E+00    0.319E-01
RMM:   2    -0.390685677118E+03   -0.54653E-02   -0.58124E-02  7926   0.301E-01    0.238E-01
RMM:   3    -0.390686442779E+03   -0.76566E-03   -0.38402E-03  7933   0.791E-02    0.450E-01
RMM:   4    -0.390685260493E+03    0.11823E-02   -0.10832E-03  7919   0.432E-02    0.194E-01
RMM:   5    -0.390685206812E+03    0.53681E-04   -0.53362E-04  7865   0.292E-02    0.155E-01
RMM:   6    -0.390686798166E+03   -0.15914E-02   -0.54123E-04  7860   0.273E-02    0.489E-01
RMM:   7    -0.390685217427E+03    0.15807E-02   -0.33439E-04  7836   0.215E-02    0.154E-01
RMM:   8    -0.390685086037E+03    0.13139E-03   -0.14279E-04  7826   0.155E-02    0.519E-02
RMM:   9    -0.390685074470E+03    0.11567E-04   -0.26680E-05  4763   0.682E-03    0.326E-02
RMM:  10    -0.390685070876E+03    0.35935E-05   -0.11154E-05  4215   0.471E-03
  56 F= -.39068507E+03 E0= -.39067184E+03  d E =-.105013E-01
 curvature:  -2.95 expect dE=-0.112E+00 dE for cont linesearch -0.251E-02
 ZBRENT: increasing intervall
 opt :   0.2982  next Energy=  -390.689673 (dE=-0.151E-01)
 bond charge predicted
       N       E                     dE             d eps       ncg     rms          rms(c)
DAV:   1    -0.390671110377E+03    0.13964E-01   -0.10460E+01  7840   0.424E+00    0.645E-01
RMM:   2    -0.390692783367E+03   -0.21673E-01   -0.22777E-01  7925   0.596E-01    0.510E-01
RMM:   3    -0.390698849541E+03   -0.60662E-02   -0.16110E-02  7944   0.161E-01    0.112E+00
RMM:   4    -0.390702497835E+03   -0.36483E-02   -0.55959E-03  7934   0.909E-02    0.130E+00
RMM:   5    -0.390691278774E+03    0.11219E-01   -0.30629E-03  7878   0.659E-02    0.466E-01
RMM:   6    -0.390690694053E+03    0.58472E-03   -0.21185E-03  7868   0.576E-02    0.289E-01
RMM:   7    -0.390690523267E+03    0.17079E-03   -0.13770E-03  7872   0.477E-02    0.213E-01
RMM:   8    -0.390690193418E+03    0.32985E-03   -0.48831E-04  7855   0.289E-02    0.108E-01
RMM:   9    -0.390690146555E+03    0.46863E-04   -0.10562E-04  7817   0.129E-02    0.675E-02
RMM:  10    -0.390690120339E+03    0.26216E-04   -0.38695E-05  5309   0.823E-03    0.349E-02
RMM:  11    -0.390690112326E+03    0.80128E-05   -0.14586E-05  4261   0.564E-03
  57 F= -.39069011E+03 E0= -.39067692E+03  d E =-.155427E-01
 curvature:  -5.42 expect dE=-0.507E-01 dE for cont linesearch -0.468E-04
 trial: gam=-0.11112 g(F)=  0.936E-02 g(S)=  0.000E+00 ort =-0.533E-02 (trialstep = 0.705E-01)
 search vector abs. value=  0.511E-01
 bond charge predicted
       N       E                     dE             d eps       ncg     rms          rms(c)
DAV:   1    -0.390690659658E+03   -0.53932E-03   -0.31310E-02  7984   0.238E-01    0.434E-02
RMM:   2    -0.390690781627E+03   -0.12197E-03   -0.63932E-04  7884   0.372E-02    0.106E-01
RMM:   3    -0.390690774590E+03    0.70366E-05   -0.72937E-05  7135   0.108E-02
  58 F= -.39069077E+03 E0= -.39067756E+03  d E =-.662264E-03
 ZBRENT: can't locate minimum, use default step
 trial-energy change:   -0.000662  1 .order   -0.000623   -0.000701   -0.000544
 step:   0.2819(harm=  0.3139)  dis= 0.00496  next Energy=  -390.691675 (dE=-0.156E-02)
 bond charge predicted
       N       E                     dE             d eps       ncg     rms          rms(c)
DAV:   1    -0.390691241607E+03   -0.45998E-03   -0.28276E-01  7872   0.713E-01    0.147E-01
RMM:   2    -0.390692963022E+03   -0.17214E-02   -0.56212E-03  7888   0.111E-01    0.450E-01
RMM:   3    -0.390692152679E+03    0.81034E-03   -0.68792E-04  7960   0.325E-02    0.292E-01
RMM:   4    -0.390691727471E+03    0.42521E-03   -0.29886E-04  7888   0.213E-02    0.171E-01
RMM:   5    -0.390691623943E+03    0.10353E-03   -0.24750E-04  7844   0.197E-02    0.954E-02
RMM:   6    -0.390691597478E+03    0.26465E-04   -0.18556E-04  7839   0.173E-02    0.773E-02
RMM:   7    -0.390691564809E+03    0.32669E-04   -0.64187E-05  7234   0.103E-02    0.517E-02
RMM:   8    -0.390691552636E+03    0.12173E-04   -0.21076E-05  4402   0.631E-03    0.365E-02
RMM:   9    -0.390691546107E+03    0.65285E-05   -0.80590E-06  4091   0.413E-03
  59 F= -.39069155E+03 E0= -.39067831E+03  d E =-.143378E-02
 curvature:  -0.79 expect dE=-0.801E-02 dE for cont linesearch -0.262E-04
 trial: gam= 0.94406 g(F)=  0.101E-01 g(S)=  0.000E+00 ort = 0.130E-02 (trialstep = 0.991E-01)
[...]
 trial-energy change:   -0.000135  1 .order   -0.000153   -0.000173   -0.000133
 step:   0.2935(harm=  0.3191)  dis= 0.00492  next Energy=  -390.698446 (dE=-0.375E-03)
 bond charge predicted
       N       E                     dE             d eps       ncg     rms          rms(c)
DAV:   1    -0.390698165652E+03    0.45378E-04   -0.18904E-01  7840   0.571E-01    0.743E-02
RMM:   2    -0.390698538829E+03   -0.37318E-03   -0.37574E-03  7925   0.825E-02    0.747E-02
RMM:   3    -0.390698671822E+03   -0.13299E-03   -0.23906E-04  7923   0.201E-02    0.166E-01
RMM:   4    -0.390698622179E+03    0.49643E-04   -0.85359E-05  7325   0.111E-02    0.146E-01
RMM:   5    -0.390698488155E+03    0.13402E-03   -0.52202E-05  6453   0.921E-03    0.521E-02
RMM:   6    -0.390698486014E+03    0.21411E-05   -0.35675E-05  5351   0.803E-03
  79 F= -.39069849E+03 E0= -.39068516E+03  d E =-.415115E-03
 curvature:  -1.78 expect dE=-0.416E-02 dE for cont linesearch -0.155E-04
 trial: gam= 0.37374 g(F)=  0.234E-02 g(S)=  0.000E+00 ort = 0.481E-03 (trialstep = 0.117E+00)
 search vector abs. value=  0.640E-02
 bond charge predicted
       N       E                     dE             d eps       ncg     rms          rms(c)
DAV:   1    -0.390698753059E+03   -0.26490E-03   -0.14008E-02  7952   0.152E-01    0.480E-02
RMM:   2    -0.390699011734E+03   -0.25867E-03   -0.52682E-04  7876   0.301E-02    0.176E-01
RMM:   3    -0.390698808743E+03    0.20299E-03   -0.13196E-04  7817   0.147E-02    0.844E-02
RMM:   4    -0.390698772483E+03    0.36259E-04   -0.15295E-05  4397   0.503E-03    0.420E-02
RMM:   5    -0.390698764834E+03    0.76492E-05   -0.83392E-06  4099   0.402E-03
  80 F= -.39069876E+03 E0= -.39068550E+03  d E =-.278821E-03
 ZBRENT: can't locate minimum, use default step
 trial-energy change:   -0.000279  1 .order   -0.000282   -0.000295   -0.000269
 step:   0.4696(harm=  1.2992)  dis= 0.00412  next Energy=  -390.700120 (dE=-0.163E-02)
 bond charge predicted
       N       E                     dE             d eps       ncg     rms          rms(c)
DAV:   1    -0.390699277500E+03   -0.50502E-03   -0.12693E-01  7840   0.452E-01    0.731E-02
RMM:   2    -0.390699558123E+03   -0.28062E-03   -0.27101E-03  7917   0.660E-02    0.929E-02
RMM:   3    -0.390699538945E+03    0.19177E-04   -0.19862E-04  7919   0.183E-02    0.958E-02
RMM:   4    -0.390699606176E+03   -0.67231E-04   -0.64561E-05  7028   0.102E-02    0.129E-01
RMM:   5    -0.390699540760E+03    0.65416E-04   -0.43248E-05  5798   0.789E-03    0.941E-02
RMM:   6    -0.390699503691E+03    0.37070E-04   -0.39300E-05  5593   0.827E-03    0.522E-02
RMM:   7    -0.390699492123E+03    0.11568E-04   -0.21721E-05  4412   0.652E-03    0.286E-02
RMM:   8    -0.390699488728E+03    0.33950E-05   -0.97091E-06  4084   0.462E-03
  81 F= -.39069949E+03 E0= -.39068623E+03  d E =-.100271E-02
 curvature:  -0.84 expect dE=-0.130E-02 dE for cont linesearch -0.368E-03
 ZBRENT: increasing intervall
 opt :   1.1741  next Energy=  -390.700237 (dE=-0.175E-02)
 bond charge predicted
       N       E                     dE             d eps       ncg     rms          rms(c)
DAV:   1    -0.390699384309E+03    0.10781E-03   -0.50783E-01  7840   0.905E-01    0.133E-01
RMM:   2    -0.390700450025E+03   -0.10657E-02   -0.10819E-02  7918   0.131E-01    0.151E-01
RMM:   3    -0.390701168506E+03   -0.71848E-03   -0.71855E-04  7940   0.336E-02    0.358E-01
RMM:   4    -0.390700527086E+03    0.64142E-03   -0.30134E-04  7905   0.210E-02    0.216E-01
RMM:   5    -0.390700303348E+03    0.22374E-03   -0.17472E-04  7840   0.168E-02    0.102E-01
RMM:   6    -0.390700272952E+03    0.30396E-04   -0.11679E-04  7808   0.137E-02    0.614E-02
RMM:   7    -0.390700271524E+03    0.14274E-05   -0.71969E-05  7321   0.109E-02
  82 F= -.39070027E+03 E0= -.39068705E+03  d E =-.178551E-02
 curvature:  -1.71 expect dE=-0.807E-02 dE for cont linesearch -0.431E-04
 trial: gam= 2.07831 g(F)=  0.473E-02 g(S)=  0.000E+00 ort = 0.402E-03 (trialstep = 0.618E-01)
 search vector abs. value=  0.341E-01
 bond charge predicted
       N       E                     dE             d eps       ncg     rms          rms(c)
DAV:   1    -0.390700521508E+03   -0.24856E-03   -0.22132E-02  7920   0.191E-01    0.511E-02
RMM:   2    -0.390700822669E+03   -0.30116E-03   -0.73482E-04  7887   0.346E-02    0.198E-01
RMM:   3    -0.390700573038E+03    0.24963E-03   -0.13715E-04  7844   0.154E-02    0.547E-02
RMM:   4    -0.390700591028E+03   -0.17990E-04   -0.18560E-05  4530   0.553E-03    0.758E-02
RMM:   5    -0.390700554188E+03    0.36841E-04   -0.12334E-05  4166   0.482E-03    0.236E-02
RMM:   6    -0.390700555623E+03   -0.14357E-05   -0.55340E-06  4120   0.348E-03
  83 F= -.39070056E+03 E0= -.39068731E+03  d E =-.284099E-03
 trial-energy change:   -0.000284  1 .order   -0.000300   -0.000344   -0.000255
 step:   0.2403(harm=  0.2403)  dis= 0.00524  next Energy=  -390.700940 (dE=-0.669E-03)
 bond charge predicted
       N       E                     dE             d eps       ncg     rms          rms(c)
DAV:   1    -0.390700621885E+03   -0.67697E-04   -0.18516E-01  7840   0.544E-01    0.788E-02
RMM:   2    -0.390701015875E+03   -0.39399E-03   -0.40292E-03  7904   0.773E-02    0.890E-02
RMM:   3    -0.390701027412E+03   -0.11537E-04   -0.22147E-04  7913   0.191E-02    0.120E-01
RMM:   4    -0.390701123596E+03   -0.96184E-04   -0.85657E-05  7345   0.114E-02    0.162E-01
RMM:   5    -0.390700951937E+03    0.17166E-03   -0.43731E-05  5845   0.811E-03    0.612E-02
RMM:   6    -0.390700958480E+03   -0.65427E-05   -0.52214E-05  6315   0.927E-03
  84 F= -.39070096E+03 E0= -.39068776E+03  d E =-.686956E-03
 curvature:  -0.74 expect dE=-0.315E-02 dE for cont linesearch -0.516E-08
 trial: gam= 1.11824 g(F)=  0.429E-02 g(S)=  0.000E+00 ort =-0.155E-04 (trialstep = 0.709E-01)
 search vector abs. value=  0.468E-01
 bond charge predicted
       N       E                     dE             d eps       ncg     rms          rms(c)
DAV:   1    -0.390701173695E+03   -0.22176E-03   -0.40267E-02  7856   0.256E-01    0.426E-02
RMM:   2    -0.390701366959E+03   -0.19326E-03   -0.85098E-04  7906   0.379E-02    0.139E-01
RMM:   3    -0.390701256740E+03    0.11022E-03   -0.88795E-05  7781   0.124E-02    0.624E-02
RMM:   4    -0.390701261702E+03   -0.49615E-05   -0.16667E-05  4426   0.527E-03
  85 F= -.39070126E+03 E0= -.39068799E+03  d E =-.303222E-03
 ZBRENT: can't locate minimum, use default step
 trial-energy change:   -0.000303  1 .order   -0.000290   -0.000303   -0.000277
 step:   0.2836(harm=  0.8558)  dis= 0.00715  next Energy=  -390.702785 (dE=-0.183E-02)
 bond charge predicted
       N       E                     dE             d eps       ncg     rms          rms(c)
DAV:   1    -0.390701454132E+03   -0.19739E-03   -0.36393E-01  7840   0.767E-01    0.981E-02
RMM:   2    -0.390702244903E+03   -0.79077E-03   -0.67472E-03  7919   0.106E-01    0.167E-01
RMM:   3    -0.390702421910E+03   -0.17701E-03   -0.39683E-04  7917   0.252E-02    0.246E-01
RMM:   4    -0.390702125557E+03    0.29635E-03   -0.16952E-04  7874   0.159E-02    0.146E-01
RMM:   5    -0.390702027563E+03    0.97994E-04   -0.87544E-05  7792   0.121E-02    0.697E-02
RMM:   6    -0.390702024309E+03    0.32536E-05   -0.71502E-05  7315   0.107E-02
  86 F= -.39070202E+03 E0= -.39068880E+03  d E =-.106583E-02
 curvature:  -2.20 expect dE=-0.959E-02 dE for cont linesearch -0.441E-03
 ZBRENT: increasing intervall
 opt :   0.7090  next Energy=  -390.702966 (dE=-0.201E-02)
 bond charge predicted
       N       E                     dE             d eps       ncg     rms          rms(c)
DAV:   1    -0.390700654172E+03    0.13734E-02   -0.14533E+00  7840   0.153E+00    0.183E-01
RMM:   2    -0.390703604144E+03   -0.29500E-02   -0.26984E-02  7918   0.211E-01    0.287E-01
RMM:   3    -0.390703447197E+03    0.15695E-03   -0.15185E-03  7921   0.507E-02    0.290E-01
RMM:   4    -0.390704324166E+03   -0.87697E-03   -0.51948E-04  7945   0.269E-02    0.446E-01
RMM:   5    -0.390702967640E+03    0.13565E-02   -0.34159E-04  7859   0.227E-02    0.130E-01
RMM:   6    -0.390703005319E+03   -0.37679E-04   -0.23780E-04  7839   0.193E-02    0.119E-01
RMM:   7    -0.390702990913E+03    0.14405E-04   -0.17438E-04  7841   0.166E-02    0.925E-02
RMM:   8    -0.390702924336E+03    0.66577E-04   -0.66867E-05  7140   0.107E-02    0.339E-02
RMM:   9    -0.390702918834E+03    0.55021E-05   -0.11408E-05  4173   0.463E-03
  87 F= -.39070292E+03 E0= -.39068968E+03  d E =-.196035E-02
 curvature:  -4.70 expect dE=-0.228E-01 dE for cont linesearch -0.109E-03
 ZBRENT: increasing intervall
 opt :   1.5597  next Energy=  -390.702083 (dE=-0.112E-02)
 bond charge predicted
       N       E                     dE             d eps       ncg     rms          rms(c)
DAV:   1    -0.390693196555E+03    0.97278E-02   -0.58227E+00  7840   0.306E+00    0.352E-01
RMM:   2    -0.390704029014E+03   -0.10832E-01   -0.10931E-01  7909   0.420E-01    0.377E-01
RMM:   3    -0.390709102759E+03   -0.50737E-02   -0.57972E-03  7928   0.968E-02    0.958E-01
RMM:   4    -0.390705003521E+03    0.40992E-02   -0.21853E-03  7939   0.563E-02    0.623E-01
RMM:   5    -0.390702696077E+03    0.23074E-02   -0.11262E-03  7864   0.425E-02    0.235E-01
RMM:   6    -0.390702721176E+03   -0.25099E-04   -0.91027E-04  7865   0.377E-02    0.187E-01
RMM:   7    -0.390702608532E+03    0.11264E-03   -0.59728E-04  7875   0.316E-02    0.117E-01
RMM:   8    -0.390702498432E+03    0.11010E-03   -0.16805E-04  7843   0.169E-02    0.526E-02
RMM:   9    -0.390702491241E+03    0.71917E-05   -0.27960E-05  4770   0.707E-03
  88 F= -.39070249E+03 E0= -.39068925E+03  d E =-.153276E-02
 curvature:  36.20 expect dE= 0.312E+00 dE for cont linesearch  0.529E-02
 ZBRENT: bracketing found
 ZBRENT: interpolating
 opt :   0.9509  next Energy=  -390.703045 (dE=-0.209E-02)
 bond charge predicted
       N       E                     dE             d eps       ncg     rms          rms(c)
DAV:   1    -0.390698582805E+03    0.39156E-02   -0.29826E+00  7840   0.219E+00    0.246E-01
RMM:   2    -0.390704067519E+03   -0.54847E-02   -0.54292E-02  7916   0.299E-01    0.304E-01
RMM:   3    -0.390706049871E+03   -0.19824E-02   -0.28365E-03  7929   0.678E-02    0.640E-01
RMM:   4    -0.390704331093E+03    0.17188E-02   -0.10951E-03  7926   0.401E-02    0.439E-01
RMM:   5    -0.390703208634E+03    0.11225E-02   -0.57888E-04  7862   0.306E-02    0.162E-01
RMM:   6    -0.390703215108E+03   -0.64742E-05   -0.47439E-04  7861   0.274E-02    0.130E-01
RMM:   7    -0.390703177211E+03    0.37897E-04   -0.28993E-04  7861   0.219E-02    0.929E-02
RMM:   8    -0.390703111063E+03    0.66148E-04   -0.72372E-05  7536   0.111E-02    0.380E-02
RMM:   9    -0.390703105377E+03    0.56860E-05   -0.13553E-05  4222   0.502E-03
  89 F= -.39070311E+03 E0= -.39068987E+03  d E =-.214690E-02
 curvature:  -0.86 expect dE=-0.496E-02 dE for cont linesearch -0.146E-06
 trial: gam= 0.44824 g(F)=  0.576E-02 g(S)=  0.000E+00 ort = 0.892E-04 (trialstep = 0.247E+00)
 search vector abs. value=  0.152E-01
 bond charge predicted
       N       E                     dE             d eps       ncg     rms          rms(c)
DAV:   1    -0.390703289475E+03   -0.17841E-03   -0.19482E-01  7840   0.526E-01    0.991E-02
RMM:   2    -0.390703657265E+03   -0.36779E-03   -0.45342E-03  7912   0.755E-02    0.905E-02
RMM:   3    -0.390703853249E+03   -0.19598E-03   -0.30010E-04  7894   0.216E-02    0.201E-01
RMM:   4    -0.390703951986E+03   -0.98737E-04   -0.16734E-04  7799   0.151E-02    0.240E-01
RMM:   5    -0.390703564389E+03    0.38760E-03   -0.11612E-04  7782   0.132E-02    0.613E-02
RMM:   6    -0.390703581916E+03   -0.17527E-04   -0.65741E-05  7125   0.103E-02    0.668E-02
RMM:   7    -0.390703554266E+03    0.27650E-04   -0.29632E-05  4827   0.731E-03    0.332E-02
RMM:   8    -0.390703547022E+03    0.72449E-05   -0.10185E-05  4145   0.474E-03
  90 F= -.39070355E+03 E0= -.39069032E+03  d E =-.441645E-03
 trial-energy change:   -0.000442  1 .order   -0.000453   -0.001432    0.000525
 step:   0.1806(harm=  0.1806)  dis= 0.00250  next Energy=  -390.703629 (dE=-0.524E-03)
 bond charge predicted
       N       E                     dE             d eps       ncg     rms          rms(c)
DAV:   1    -0.390703591566E+03   -0.37299E-04   -0.14068E-02  7952   0.144E-01    0.278E-02
RMM:   2    -0.390703651859E+03   -0.60293E-04   -0.36982E-04  7634   0.214E-02    0.662E-02
RMM:   3    -0.390703644295E+03    0.75638E-05   -0.22302E-05  4451   0.627E-03
  91 F= -.39070364E+03 E0= -.39069039E+03  d E =-.538918E-03
 curvature:  -0.24 expect dE=-0.109E-02 dE for cont linesearch -0.367E-06
 trial: gam= 0.82722 g(F)=  0.459E-02 g(S)=  0.000E+00 ort =-0.154E-03 (trialstep = 0.234E+00)
 search vector abs. value=  0.148E-01
 bond charge predicted
       N       E                     dE             d eps       ncg     rms          rms(c)
DAV:   1    -0.390704197166E+03   -0.54531E-03   -0.18060E-01  7840   0.552E-01    0.822E-02
RMM:   2    -0.390705266625E+03   -0.10695E-02   -0.39969E-03  7905   0.822E-02    0.324E-01
RMM:   3    -0.390704730311E+03    0.53631E-03   -0.35269E-04  7915   0.236E-02    0.185E-01
RMM:   4    -0.390704550247E+03    0.18006E-03   -0.10437E-04  7840   0.130E-02    0.900E-02
RMM:   5    -0.390704518907E+03    0.31339E-04   -0.42750E-05  5625   0.890E-03    0.383E-02
RMM:   6    -0.390704527801E+03   -0.88934E-05   -0.37065E-05  5385   0.830E-03
  92 F= -.39070453E+03 E0= -.39069130E+03  d E =-.883505E-03
 trial-energy change:   -0.000884  1 .order   -0.000875   -0.001042   -0.000709
 step:   0.7308(harm=  0.7308)  dis= 0.01026  next Energy=  -390.705274 (dE=-0.163E-02)
 bond charge predicted
       N       E                     dE             d eps       ncg     rms          rms(c)
DAV:   1    -0.390703897358E+03    0.62155E-03   -0.81686E-01  7840   0.117E+00    0.160E-01
RMM:   2    -0.390705664723E+03   -0.17674E-02   -0.17084E-02  7914   0.170E-01    0.222E-01
RMM:   3    -0.390705904197E+03   -0.23947E-03   -0.10484E-03  7929   0.414E-02    0.302E-01
RMM:   4    -0.390706287157E+03   -0.38296E-03   -0.46934E-04  7929   0.255E-02    0.383E-01
RMM:   5    -0.390705311803E+03    0.97535E-03   -0.28000E-04  7850   0.210E-02    0.105E-01
RMM:   6    -0.390705386374E+03   -0.74571E-04   -0.18588E-04  7839   0.170E-02    0.116E-01
RMM:   7    -0.390705326701E+03    0.59672E-04   -0.11360E-04  7805   0.135E-02    0.628E-02
RMM:   8    -0.390705308196E+03    0.18505E-04   -0.44076E-05  6014   0.870E-03    0.383E-02
RMM:   9    -0.390705299148E+03    0.90482E-05   -0.11712E-05  4206   0.497E-03
  93 F= -.39070530E+03 E0= -.39069201E+03  d E =-.165485E-02
 curvature:  -1.21 expect dE=-0.299E-02 dE for cont linesearch -0.116E-07
 trial: gam= 0.29928 g(F)=  0.247E-02 g(S)=  0.000E+00 ort = 0.119E-04 (trialstep = 0.333E+00)
 search vector abs. value=  0.380E-02
 bond charge predicted
       N       E                     dE             d eps       ncg     rms          rms(c)
DAV:   1    -0.390705517001E+03   -0.20880E-03   -0.10809E-01  7856   0.406E-01    0.668E-02
RMM:   2    -0.390705746811E+03   -0.22981E-03   -0.26376E-03  7910   0.591E-02    0.572E-02
RMM:   3    -0.390705908981E+03   -0.16217E-03   -0.16692E-04  7875   0.159E-02    0.169E-01
RMM:   4    -0.390705814819E+03    0.94162E-04   -0.74258E-05  6911   0.103E-02    0.131E-01
RMM:   5    -0.390705704947E+03    0.10987E-03   -0.41579E-05  5520   0.845E-03    0.384E-02
RMM:   6    -0.390705712674E+03   -0.77271E-05   -0.29438E-05  4747   0.735E-03
  94 F= -.39070571E+03 E0= -.39069244E+03  d E =-.413527E-03
 trial-energy change:   -0.000414  1 .order   -0.000399   -0.000824    0.000027
 step:   0.3226(harm=  0.3226)  dis= 0.00264  next Energy=  -390.705698 (dE=-0.399E-03)
 bond charge predicted
       N       E                     dE             d eps       ncg     rms          rms(c)
DAV:   1    -0.390705701851E+03    0.30968E-05   -0.14803E-04  7960   0.240E-02    0.237E-02
RMM:   2    -0.390705790963E+03   -0.89112E-04   -0.77901E-05  7137   0.113E-02    0.108E-01
RMM:   3    -0.390705750682E+03    0.40281E-04   -0.35446E-05  5265   0.737E-03    0.872E-02
RMM:   4    -0.390705698755E+03    0.51926E-04   -0.10771E-05  4232   0.431E-03    0.142E-02
RMM:   5    -0.390705699260E+03   -0.50429E-06   -0.27198E-06  3875   0.226E-03
  95 F= -.39070570E+03 E0= -.39069239E+03  d E =-.400112E-03
 curvature:  -0.25 expect dE=-0.112E-02 dE for cont linesearch -0.192E-06
 trial: gam= 1.85243 g(F)=  0.451E-02 g(S)=  0.000E+00 ort =-0.543E-04 (trialstep = 0.725E-01)
 search vector abs. value=  0.173E-01
 bond charge predicted
       N       E                     dE             d eps       ncg     rms          rms(c)
DAV:   1    -0.390705959367E+03   -0.26061E-03   -0.21754E-02  7856   0.186E-01    0.318E-02
RMM:   2    -0.390706010427E+03   -0.51060E-04   -0.47111E-04  7856   0.273E-02    0.406E-02
RMM:   3    -0.390706056518E+03   -0.46091E-04   -0.32684E-05  4826   0.744E-03    0.928E-02
RMM:   4    -0.390706006396E+03    0.50122E-04   -0.15714E-05  4316   0.561E-03    0.402E-02
RMM:   5    -0.390706002750E+03    0.36466E-05   -0.93233E-06  4179   0.451E-03
  96 F= -.39070600E+03 E0= -.39069269E+03  d E =-.303490E-03
 ZBRENT: can't locate minimum, use default step
 trial-energy change:   -0.000303  1 .order   -0.000288   -0.000320   -0.000256
 step:   0.2900(harm=  0.3653)  dis= 0.00494  next Energy=  -390.706504 (dE=-0.805E-03)
 bond charge predicted
       N       E                     dE             d eps       ncg     rms          rms(c)
DAV:   1    -0.390706212121E+03   -0.20572E-03   -0.19582E-01  7840   0.557E-01    0.979E-02
RMM:   2    -0.390706607662E+03   -0.39554E-03   -0.42030E-03  7912   0.818E-02    0.958E-02
RMM:   3    -0.390706706680E+03   -0.99018E-04   -0.33332E-04  7920   0.233E-02    0.162E-01
RMM:   4    -0.390706871637E+03   -0.16496E-03   -0.13561E-04  7806   0.141E-02    0.216E-01
RMM:   5    -0.390706575352E+03    0.29628E-03   -0.89202E-05  7415   0.112E-02    0.849E-02
RMM:   6    -0.390706568247E+03    0.71055E-05   -0.63112E-05  6973   0.101E-02
  97 F= -.39070657E+03 E0= -.39069336E+03  d E =-.868987E-03
 curvature:  -0.67 expect dE=-0.885E-03 dE for cont linesearch -0.601E-04
 trial: gam=-0.08081 g(F)=  0.132E-02 g(S)=  0.000E+00 ort = 0.125E-02 (trialstep = 0.116E+00)
 search vector abs. value=  0.123E-02
 bond charge predicted
       N       E                     dE             d eps       ncg     rms          rms(c)
DAV:   1    -0.390706633035E+03   -0.57683E-04   -0.41894E-03  7936   0.825E-02    0.408E-02
RMM:   2    -0.390706758669E+03   -0.12563E-03   -0.24092E-04  7904   0.200E-02    0.127E-01
RMM:   3    -0.390706656451E+03    0.10222E-03   -0.78038E-05  7524   0.112E-02    0.628E-02
RMM:   4    -0.390706648607E+03    0.78442E-05   -0.11648E-05  4316   0.432E-03
  98 F= -.39070665E+03 E0= -.39069333E+03  d E =-.803601E-04
 trial-energy change:   -0.000080  1 .order   -0.000097   -0.000141   -0.000054
 step:   0.1868(harm=  0.1868)  dis= 0.00099  next Energy=  -390.706682 (dE=-0.114E-03)
 bond charge predicted
       N       E                     dE             d eps       ncg     rms          rms(c)
DAV:   1    -0.390706647561E+03    0.88907E-05   -0.15417E-03  7952   0.516E-02    0.383E-02
RMM:   2    -0.390706936978E+03   -0.28942E-03   -0.18621E-04  7885   0.173E-02    0.207E-01
RMM:   3    -0.390706741992E+03    0.19499E-03   -0.89697E-05  7513   0.113E-02    0.123E-01
RMM:   4    -0.390706638123E+03    0.10387E-03   -0.19713E-05  4505   0.583E-03    0.183E-02
RMM:   5    -0.390706642258E+03   -0.41349E-05   -0.95042E-06  4150   0.415E-03
  99 F= -.39070664E+03 E0= -.39069332E+03  d E =-.740112E-04
 curvature:  -0.09 expect dE=-0.842E-04 dE for cont linesearch -0.134E-06
 trial: gam= 0.64138 g(F)=  0.892E-03 g(S)=  0.000E+00 ort =-0.419E-04 (trialstep = 0.119E+00)
 search vector abs. value=  0.134E-02
 reached required accuracy - stopping structural energy minimisation
