  64  64   0   0
  0.5351303E+02  0.1121436E-08  0.1121436E-08  0.3144561E-08  0.5000000E-15
  1.000000000000000E-004
  CAR 
 Pt                                      
      5.11761861    -11.28342408  301     -0.98806172      1.00000000
    -11.283  0.0000E+00  0.0000E+00
    -11.229  0.0000E+00  0.0000E+00
    -11.174  0.0000E+00  0.0000E+00
    -11.119 -0.1199E-31 -0.6555E-33
    -11.065 -0.7751E-28 -0.4238E-29
    -11.010 -0.2742E-24 -0.1500E-25
    -10.955 -0.5307E-21 -0.2903E-22
    -10.901 -0.5610E-18 -0.3070E-19
    -10.846 -0.3133E-15 -0.1716E-16
    -10.791 -0.9771E-13 -0.5359E-14
    -10.737 -0.1649E-10 -0.9071E-12
    -10.682 -0.1499E-08 -0.8286E-10
    -10.627 -0.7266E-07 -0.4055E-08
    -10.573 -0.1846E-05 -0.1050E-06
    -10.518 -0.2377E-04 -0.1404E-05
    -10.463 -0.1425E-03 -0.9195E-05
    -10.409 -0.2893E-03 -0.2501E-04
    -10.354  0.4114E-03 -0.2515E-05
    -10.299  0.2325E-02  0.1246E-03
    -10.245  0.5610E-02  0.4313E-03
    -10.190  0.1674E-01  0.1346E-02
    -10.135  0.2975E-01  0.2973E-02
    -10.081  0.2209E-01  0.4180E-02
    -10.026  0.3684E-02  0.4382E-02
     -9.971  0.9037E-03  0.4431E-02
     -9.917  0.1666E-01  0.5342E-02
     -9.862  0.3056E-01  0.7013E-02
     -9.807  0.3170E-01  0.8746E-02
     -9.753  0.3177E-01  0.1048E-01
     -9.698  0.2242E-01  0.1171E-01
     -9.643  0.5366E-02  0.1200E-01
     -9.589 -0.2683E-02  0.1186E-01
     -9.534 -0.4015E-02  0.1164E-01
     -9.479  0.5398E-02  0.1193E-01
     -9.425  0.3805E-01  0.1401E-01
     -9.370  0.6034E-01  0.1731E-01
     -9.315  0.3523E-01  0.1924E-01
     -9.261  0.6827E-02  0.1961E-01
     -9.206  0.1443E-01  0.2040E-01
     -9.151  0.2910E-01  0.2199E-01
     -9.097  0.1943E-01  0.2305E-01
     -9.042  0.2912E-02  0.2321E-01
     -8.987 -0.1447E-02  0.2313E-01
     -8.933  0.2218E-02  0.2325E-01
     -8.878  0.2223E-01  0.2447E-01
     -8.823  0.6390E-01  0.2796E-01
     -8.769  0.9194E-01  0.3299E-01
     -8.714  0.7486E-01  0.3708E-01
     -8.659  0.3163E-01  0.3881E-01
     -8.605  0.1509E-01  0.3964E-01
     -8.550  0.3510E-01  0.4155E-01
     -8.495  0.5884E-01  0.4477E-01
     -8.441  0.6086E-01  0.4810E-01
     -8.386  0.3315E-01  0.4991E-01
     -8.331  0.2781E-02  0.5006E-01
     -8.277 -0.8441E-02  0.4960E-01
     -8.222  0.7022E-02  0.4998E-01
     -8.167  0.6919E-01  0.5377E-01
     -8.113  0.1439E+00  0.6163E-01
     -8.058  0.1385E+00  0.6921E-01
     -8.003  0.6428E-01  0.7272E-01
     -7.949  0.3518E-01  0.7464E-01
     -7.894  0.5435E-01  0.7761E-01
     -7.839  0.4242E-01  0.7993E-01
     -7.785  0.1222E-01  0.8060E-01
     -7.730  0.1574E-01  0.8146E-01
     -7.675  0.7434E-01  0.8553E-01
     -7.621  0.1825E+00  0.9550E-01
     -7.566  0.2647E+00  0.1100E+00
     -7.511  0.2660E+00  0.1245E+00
     -7.457  0.2439E+00  0.1378E+00
     -7.402  0.2106E+00  0.1494E+00
     -7.347  0.1556E+00  0.1579E+00
     -7.293  0.1682E+00  0.1671E+00
     -7.238  0.2693E+00  0.1818E+00
     -7.183  0.3559E+00  0.2012E+00
     -7.128  0.3192E+00  0.2187E+00
     -7.074  0.2292E+00  0.2312E+00
     -7.019  0.2257E+00  0.2436E+00
     -6.964  0.2597E+00  0.2578E+00
     -6.910  0.2879E+00  0.2735E+00
     -6.855  0.3359E+00  0.2919E+00
     -6.800  0.3419E+00  0.3106E+00
     -6.746  0.3336E+00  0.3288E+00
     -6.691  0.3959E+00  0.3504E+00
     -6.636  0.4844E+00  0.3769E+00
     -6.582  0.5134E+00  0.4050E+00
     -6.527  0.5151E+00  0.4332E+00
     -6.472  0.4817E+00  0.4595E+00
     -6.418  0.4239E+00  0.4827E+00
     -6.363  0.4402E+00  0.5067E+00
     -6.308  0.5135E+00  0.5348E+00
     -6.254  0.4907E+00  0.5616E+00
     -6.199  0.3907E+00  0.5830E+00
     -6.144  0.3510E+00  0.6022E+00
     -6.090  0.3436E+00  0.6210E+00
     -6.035  0.3480E+00  0.6400E+00
     -5.980  0.3356E+00  0.6583E+00
     -5.926  0.2574E+00  0.6724E+00
     -5.871  0.1461E+00  0.6804E+00
     -5.816  0.1314E+00  0.6876E+00
     -5.762  0.2767E+00  0.7027E+00
     -5.707  0.4545E+00  0.7276E+00
     -5.652  0.5343E+00  0.7568E+00
     -5.598  0.4995E+00  0.7841E+00
     -5.543  0.4091E+00  0.8064E+00
     -5.488  0.3546E+00  0.8258E+00
     -5.434  0.3655E+00  0.8458E+00
     -5.379  0.3977E+00  0.8675E+00
     -5.324  0.4214E+00  0.8906E+00
     -5.270  0.4685E+00  0.9162E+00
     -5.215  0.5004E+00  0.9436E+00
     -5.160  0.4375E+00  0.9675E+00
     -5.106  0.3749E+00  0.9880E+00
     -5.051  0.3994E+00  0.1010E+01
     -4.996  0.3838E+00  0.1031E+01
     -4.942  0.2825E+00  0.1046E+01
     -4.887  0.2477E+00  0.1060E+01
     -4.832  0.3461E+00  0.1079E+01
     -4.778  0.4527E+00  0.1103E+01
     -4.723  0.4788E+00  0.1130E+01
     -4.668  0.4814E+00  0.1156E+01
     -4.614  0.5361E+00  0.1185E+01
     -4.559  0.6272E+00  0.1220E+01
     -4.504  0.6909E+00  0.1257E+01
     -4.450  0.6816E+00  0.1295E+01
     -4.395  0.5922E+00  0.1327E+01
     -4.340  0.4747E+00  0.1353E+01
     -4.286  0.4584E+00  0.1378E+01
     -4.231  0.6125E+00  0.1411E+01
     -4.176  0.7831E+00  0.1454E+01
     -4.122  0.7755E+00  0.1497E+01
     -4.067  0.7057E+00  0.1535E+01
     -4.012  0.7580E+00  0.1577E+01
     -3.958  0.7780E+00  0.1619E+01
     -3.903  0.7086E+00  0.1658E+01
     -3.848  0.6988E+00  0.1696E+01
     -3.794  0.7254E+00  0.1736E+01
     -3.739  0.7417E+00  0.1776E+01
     -3.684  0.7729E+00  0.1819E+01
     -3.630  0.6839E+00  0.1856E+01
     -3.575  0.4538E+00  0.1881E+01
     -3.520  0.3342E+00  0.1899E+01
     -3.466  0.3702E+00  0.1919E+01
     -3.411  0.3923E+00  0.1941E+01
     -3.356  0.3776E+00  0.1961E+01
     -3.302  0.3703E+00  0.1982E+01
     -3.247  0.3362E+00  0.2000E+01
     -3.192  0.2748E+00  0.2015E+01
     -3.138  0.3393E+00  0.2034E+01
     -3.083  0.5702E+00  0.2065E+01
     -3.028  0.7672E+00  0.2107E+01
     -2.974  0.8129E+00  0.2151E+01
     -2.919  0.6917E+00  0.2189E+01
     -2.864  0.4847E+00  0.2215E+01
     -2.810  0.4119E+00  0.2238E+01
     -2.755  0.4411E+00  0.2262E+01
     -2.700  0.4124E+00  0.2285E+01
     -2.646  0.3470E+00  0.2304E+01
     -2.591  0.3374E+00  0.2322E+01
     -2.536  0.4138E+00  0.2345E+01
     -2.482  0.4629E+00  0.2370E+01
     -2.427  0.3985E+00  0.2392E+01
     -2.372  0.3775E+00  0.2412E+01
     -2.318  0.5005E+00  0.2440E+01
     -2.263  0.5680E+00  0.2471E+01
     -2.208  0.5029E+00  0.2498E+01
     -2.154  0.5599E+00  0.2529E+01
     -2.099  0.7451E+00  0.2570E+01
     -2.044  0.7681E+00  0.2612E+01
     -1.989  0.6915E+00  0.2649E+01
     -1.935  0.6174E+00  0.2683E+01
     -1.880  0.5528E+00  0.2713E+01
     -1.825  0.5492E+00  0.2743E+01
     -1.771  0.4071E+00  0.2766E+01
     -1.716  0.2031E+00  0.2777E+01
     -1.661  0.2577E+00  0.2791E+01
     -1.607  0.4729E+00  0.2817E+01
     -1.552  0.5704E+00  0.2848E+01
     -1.497  0.5727E+00  0.2879E+01
     -1.443  0.6178E+00  0.2913E+01
     -1.388  0.5790E+00  0.2945E+01
     -1.333  0.4317E+00  0.2968E+01
     -1.279  0.4263E+00  0.2992E+01
     -1.224  0.5581E+00  0.3022E+01
     -1.169  0.6151E+00  0.3056E+01
     -1.115  0.6812E+00  0.3093E+01
     -1.060  0.8298E+00  0.3138E+01
     -1.005  0.8670E+00  0.3186E+01
     -0.951  0.7828E+00  0.3229E+01
     -0.896  0.6432E+00  0.3264E+01
     -0.841  0.5038E+00  0.3291E+01
     -0.787  0.4833E+00  0.3318E+01
     -0.732  0.5107E+00  0.3346E+01
     -0.677  0.4810E+00  0.3372E+01
     -0.623  0.3566E+00  0.3391E+01
     -0.568  0.1638E+00  0.3400E+01
     -0.513  0.3416E-01  0.3402E+01
     -0.459  0.1879E-01  0.3403E+01
     -0.404  0.7118E-01  0.3407E+01
     -0.349  0.1387E+00  0.3415E+01
     -0.295  0.1560E+00  0.3423E+01
     -0.240  0.1055E+00  0.3429E+01
     -0.185  0.7268E-01  0.3433E+01
     -0.131  0.8958E-01  0.3438E+01
     -0.076  0.1127E+00  0.3444E+01
     -0.021  0.1409E+00  0.3452E+01
      0.033  0.1388E+00  0.3459E+01
      0.088  0.9638E-01  0.3465E+01
      0.143  0.9265E-01  0.3470E+01
      0.197  0.1583E+00  0.3478E+01
      0.252  0.2164E+00  0.3490E+01
      0.307  0.1735E+00  0.3500E+01
      0.361  0.9064E-01  0.3505E+01
      0.416  0.7707E-01  0.3509E+01
      0.471  0.1093E+00  0.3515E+01
      0.525  0.1040E+00  0.3520E+01
      0.580  0.5419E-01  0.3523E+01
      0.635  0.7414E-02  0.3524E+01
      0.689  0.8896E-03  0.3524E+01
      0.744  0.3690E-01  0.3526E+01
      0.799  0.7539E-01  0.3530E+01
      0.853  0.6582E-01  0.3534E+01
      0.908  0.4913E-01  0.3536E+01
      0.963  0.8764E-01  0.3541E+01
      1.017  0.1306E+00  0.3548E+01
      1.072  0.1258E+00  0.3555E+01
      1.127  0.1169E+00  0.3562E+01
      1.181  0.1455E+00  0.3569E+01
      1.236  0.1788E+00  0.3579E+01
      1.291  0.1990E+00  0.3590E+01
      1.345  0.1729E+00  0.3600E+01
      1.400  0.1162E+00  0.3606E+01
      1.455  0.1150E+00  0.3612E+01
      1.509  0.1212E+00  0.3619E+01
      1.564  0.8237E-01  0.3623E+01
      1.619  0.4042E-01  0.3626E+01
      1.673  0.3620E-01  0.3628E+01
      1.728  0.8044E-01  0.3632E+01
      1.783  0.1374E+00  0.3639E+01
      1.837  0.1397E+00  0.3647E+01
      1.892  0.6713E-01  0.3651E+01
      1.947  0.8566E-02  0.3651E+01
      2.001  0.5706E-01  0.3654E+01
      2.056  0.1515E+00  0.3663E+01
      2.111  0.1339E+00  0.3670E+01
      2.165  0.4426E-01  0.3672E+01
      2.220  0.4116E-01  0.3675E+01
      2.275  0.1042E+00  0.3680E+01
      2.329  0.1218E+00  0.3687E+01
      2.384  0.9541E-01  0.3692E+01
      2.439  0.9281E-01  0.3697E+01
      2.493  0.1042E+00  0.3703E+01
      2.548  0.1161E+00  0.3709E+01
      2.603  0.1214E+00  0.3716E+01
      2.657  0.1109E+00  0.3722E+01
      2.712  0.1131E+00  0.3728E+01
      2.767  0.1147E+00  0.3734E+01
      2.821  0.1012E+00  0.3740E+01
      2.876  0.1244E+00  0.3747E+01
      2.931  0.1350E+00  0.3754E+01
      2.985  0.6860E-01  0.3758E+01
      3.040  0.9325E-02  0.3758E+01
      3.095  0.1849E-01  0.3759E+01
      3.149  0.5948E-01  0.3763E+01
      3.204  0.8811E-01  0.3768E+01
      3.259  0.1347E+00  0.3775E+01
      3.314  0.2339E+00  0.3788E+01
      3.368  0.2469E+00  0.3801E+01
      3.423  0.1190E+00  0.3808E+01
      3.478  0.4350E-01  0.3810E+01
      3.532  0.4847E-01  0.3813E+01
      3.587  0.2992E-01  0.3814E+01
      3.642  0.3902E-02  0.3815E+01
      3.696  0.8565E-02  0.3815E+01
      3.751  0.2137E-01  0.3816E+01
      3.806  0.1345E-01  0.3817E+01
      3.860  0.1353E-01  0.3818E+01
      3.915  0.6551E-01  0.3821E+01
      3.970  0.1129E+00  0.3827E+01
      4.024  0.8232E-01  0.3832E+01
      4.079  0.4644E-01  0.3834E+01
      4.134  0.5456E-01  0.3837E+01
      4.188  0.4214E-01  0.3840E+01
      4.243  0.9534E-02  0.3840E+01
      4.298 -0.2910E-02  0.3840E+01
      4.352 -0.1677E-02  0.3840E+01
      4.407 -0.2841E-03  0.3840E+01
      4.462 -0.2213E-04  0.3840E+01
      4.516 -0.8711E-06  0.3840E+01
      4.571 -0.1797E-07  0.3840E+01
      4.626 -0.1977E-09  0.3840E+01
      4.680 -0.1171E-11  0.3840E+01
      4.735 -0.3767E-14  0.3840E+01
      4.790  0.0000E+00  0.3840E+01
      4.844  0.0000E+00  0.3840E+01
      4.899  0.0000E+00  0.3840E+01
      4.954  0.0000E+00  0.3840E+01
      5.008  0.0000E+00  0.3840E+01
      5.063  0.0000E+00  0.3840E+01
      5.118  0.0000E+00  0.3840E+01
