       N       E                     dE             d eps       ncg     rms          rms(c)
DAV:   1     0.418683109124E+04    0.41868E+04   -0.23231E+05  7696   0.112E+03
DAV:   2    -0.128825168963E+02   -0.41997E+04   -0.38558E+04  9688   0.252E+02
DAV:   3    -0.375884867633E+03   -0.36300E+03   -0.33153E+03  8928   0.715E+01
DAV:   4    -0.394378018599E+03   -0.18493E+02   -0.16857E+02 10496   0.140E+01
DAV:   5    -0.394901653561E+03   -0.52363E+00   -0.51438E+00  9520   0.241E+00    0.811E+01
RMM:   6    -0.382212876853E+03    0.12689E+02   -0.67096E+01  7718   0.133E+01    0.594E+01
RMM:   7    -0.470293598728E+03   -0.88081E+02   -0.16493E+02  7746   0.151E+01    0.798E+01
RMM:   8    -0.376029786588E+03    0.94264E+02   -0.44573E+01  7731   0.853E+00    0.251E+01
RMM:   9    -0.375164881537E+03    0.86491E+00   -0.25886E+01  7742   0.572E+00    0.230E+01
RMM:  10    -0.375262417383E+03   -0.97536E-01   -0.17617E+00  7793   0.155E+00    0.241E+01
RMM:  11    -0.370643320368E+03    0.46191E+01   -0.80249E-01  7758   0.105E+00    0.703E+00
RMM:  12    -0.370417555012E+03    0.22577E+00   -0.20146E-01  7818   0.538E-01    0.441E+00
RMM:  13    -0.370430349043E+03   -0.12794E-01   -0.18415E-01  7782   0.508E-01    0.352E+00
RMM:  14    -0.370465289823E+03   -0.34941E-01   -0.62345E-02  7813   0.301E-01    0.382E+00
RMM:  15    -0.370351540612E+03    0.11375E+00   -0.47614E-02  7727   0.285E-01    0.166E+00
RMM:  16    -0.370339033480E+03    0.12507E-01   -0.12496E-02  7806   0.132E-01    0.112E+00
RMM:  17    -0.370333409507E+03    0.56240E-02   -0.44370E-03  7870   0.772E-02    0.640E-01
RMM:  18    -0.370331916761E+03    0.14927E-02   -0.15060E-03  7804   0.456E-02    0.421E-01
RMM:  19    -0.370331006470E+03    0.91029E-03   -0.10014E-03  7767   0.363E-02    0.237E-01
RMM:  20    -0.370330534382E+03    0.47209E-03   -0.54009E-04  7779   0.269E-02    0.929E-02
RMM:  21    -0.370330576566E+03   -0.42184E-04   -0.84789E-05  6852   0.105E-02    0.722E-02
RMM:  22    -0.370330619747E+03   -0.43181E-04   -0.27030E-05  4790   0.647E-03    0.617E-02
RMM:  23    -0.370330632730E+03   -0.12984E-04   -0.12052E-05  4243   0.459E-03    0.407E-02
RMM:  24    -0.370330693646E+03   -0.60916E-04   -0.21082E-05  4631   0.486E-03    0.183E-02
RMM:  25    -0.370330758734E+03   -0.65087E-04   -0.15175E-05  4370   0.416E-03    0.210E-02
RMM:  26    -0.370330842248E+03   -0.83515E-04   -0.10389E-05  4329   0.313E-03    0.272E-02
RMM:  27    -0.370330908135E+03   -0.65887E-04   -0.54925E-06  3740   0.221E-03    0.215E-02
RMM:  28    -0.370330970508E+03   -0.62372E-04   -0.46089E-06  4117   0.214E-03    0.117E-02
RMM:  29    -0.370331029362E+03   -0.58855E-04   -0.46925E-06  3803   0.202E-03    0.799E-03
RMM:  30    -0.370331052189E+03   -0.22827E-04   -0.13232E-06  1710   0.124E-03    0.737E-03
RMM:  31    -0.370331099060E+03   -0.46870E-04   -0.16396E-06  1774   0.134E-03    0.492E-03
RMM:  32    -0.370331139537E+03   -0.40477E-04   -0.20494E-06  2111   0.142E-03    0.384E-03
RMM:  33    -0.370331167277E+03   -0.27740E-04   -0.16423E-06  1865   0.129E-03    0.288E-03
RMM:  34    -0.370331178586E+03   -0.11310E-04   -0.52880E-07   947   0.100E-03    0.220E-03
RMM:  35    -0.370331195409E+03   -0.16823E-04   -0.52241E-07  1008   0.103E-03    0.132E-03
RMM:  36    -0.370331202863E+03   -0.74537E-05   -0.28559E-07   781   0.992E-04
   1 F= -.37033120E+03 E0= -.37031723E+03  d E =-.370331E+03
       N       E                     dE             d eps       ncg     rms          rms(c)
DAV:   1    -0.370344082334E+03   -0.12887E-01   -0.83343E+00  7808   0.378E+00    0.575E-01
RMM:   2    -0.370427524711E+03   -0.83442E-01   -0.10835E-01  7742   0.573E-01    0.335E+00
RMM:   3    -0.370377381734E+03    0.50143E-01   -0.75007E-03  8246   0.116E-01    0.198E+00
RMM:   4    -0.370369610767E+03    0.77710E-02   -0.66880E-03  7711   0.102E-01    0.168E+00
RMM:   5    -0.370358254808E+03    0.11356E-01   -0.60108E-03  7736   0.947E-02    0.973E-01
RMM:   6    -0.370354013680E+03    0.42411E-02   -0.33514E-03  7736   0.739E-02    0.383E-01
RMM:   7    -0.370352723910E+03    0.12898E-02   -0.10629E-03  7737   0.416E-02    0.118E-01
RMM:   8    -0.370352678399E+03    0.45511E-04   -0.32061E-04  7769   0.217E-02    0.102E-01
RMM:   9    -0.370352611515E+03    0.66884E-04   -0.90445E-05  7482   0.118E-02    0.341E-02
RMM:  10    -0.370352614580E+03   -0.30647E-05   -0.48421E-05  6074   0.891E-03
   2 F= -.37035261E+03 E0= -.37033794E+03  d E =-.214117E-01
       N       E                     dE             d eps       ncg     rms          rms(c)
DAV:   1    -0.370354229473E+03   -0.16180E-02   -0.98287E-01  7808   0.130E+00    0.199E-01
RMM:   2    -0.370363106811E+03   -0.88773E-02   -0.12834E-02  7742   0.198E-01    0.108E+00
RMM:   3    -0.370357739002E+03    0.53678E-02   -0.88245E-04  8295   0.400E-02    0.647E-01
RMM:   4    -0.370357097288E+03    0.64171E-03   -0.87318E-04  7710   0.367E-02    0.572E-01
RMM:   5    -0.370355782477E+03    0.13148E-02   -0.67238E-04  7737   0.319E-02    0.329E-01
RMM:   6    -0.370355438205E+03    0.34427E-03   -0.38124E-04  7733   0.250E-02    0.154E-01
RMM:   7    -0.370355257440E+03    0.18076E-03   -0.13784E-04  7631   0.149E-02    0.479E-02
RMM:   8    -0.370355266089E+03   -0.86485E-05   -0.14919E-05  4288   0.511E-03
   3 F= -.37035527E+03 E0= -.37034030E+03  d E =-.240632E-01
       N       E                     dE             d eps       ncg     rms          rms(c)
DAV:   1    -0.370356125273E+03   -0.86783E-03   -0.21046E-01  7808   0.598E-01    0.678E-02
RMM:   2    -0.370356658335E+03   -0.53306E-03   -0.25795E-03  7699   0.915E-02    0.204E-01
RMM:   3    -0.370356398310E+03    0.26003E-03   -0.21084E-04  7904   0.208E-02    0.771E-02
RMM:   4    -0.370356395677E+03    0.26328E-05   -0.92039E-05  7345   0.122E-02
   4 F= -.37035640E+03 E0= -.37034160E+03  d E =-.112959E-02
       N       E                     dE             d eps       ncg     rms          rms(c)
DAV:   1    -0.370357472323E+03   -0.10740E-02   -0.18940E+00  7744   0.180E+00    0.213E-01
RMM:   2    -0.370362271184E+03   -0.47989E-02   -0.22630E-02  7694   0.272E-01    0.622E-01
RMM:   3    -0.370359776669E+03    0.24945E-02   -0.18498E-03  8104   0.612E-02    0.221E-01
RMM:   4    -0.370359888419E+03   -0.11175E-03   -0.92258E-04  7686   0.380E-02    0.293E-01
RMM:   5    -0.370359403582E+03    0.48484E-03   -0.32041E-04  7708   0.243E-02    0.146E-01
RMM:   6    -0.370359657152E+03   -0.25357E-03   -0.39094E-04  7703   0.253E-02    0.223E-01
RMM:   7    -0.370359467898E+03    0.18925E-03   -0.25680E-04  7684   0.210E-02    0.131E-01
RMM:   8    -0.370359359175E+03    0.10872E-03   -0.80076E-05  6900   0.114E-02    0.654E-02
RMM:   9    -0.370359330029E+03    0.29147E-04   -0.19697E-05  4173   0.630E-03    0.240E-02
RMM:  10    -0.370359325357E+03    0.46723E-05   -0.81642E-06  4030   0.416E-03
   5 F= -.37035933E+03 E0= -.37034470E+03  d E =-.405927E-02
       N       E                     dE             d eps       ncg     rms          rms(c)
DAV:   1    -0.370355375502E+03    0.39545E-02   -0.75744E+00  7680   0.359E+00    0.413E-01
RMM:   2    -0.370392149839E+03   -0.36774E-01   -0.97188E-02  7697   0.554E-01    0.198E+00
RMM:   3    -0.370364272507E+03    0.27877E-01   -0.85185E-03  7899   0.130E-01    0.272E-01
RMM:   4    -0.370365008687E+03   -0.73618E-03   -0.33702E-03  7698   0.715E-02    0.518E-01
RMM:   5    -0.370363393236E+03    0.16155E-02   -0.74974E-04  7732   0.382E-02    0.274E-01
RMM:   6    -0.370364676317E+03   -0.12831E-02   -0.16984E-03  7717   0.526E-02    0.459E-01
RMM:   7    -0.370363505832E+03    0.11705E-02   -0.85910E-04  7743   0.377E-02    0.239E-01
RMM:   8    -0.370363218086E+03    0.28775E-03   -0.19935E-04  7699   0.177E-02    0.129E-01
RMM:   9    -0.370363091303E+03    0.12678E-03   -0.82251E-05  7540   0.118E-02    0.240E-02
RMM:  10    -0.370363093600E+03   -0.22962E-05   -0.12835E-05  4205   0.493E-03
   6 F= -.37036309E+03 E0= -.37034897E+03  d E =-.782751E-02
       N       E                     dE             d eps       ncg     rms          rms(c)
DAV:   1    -0.370362031055E+03    0.10602E-02   -0.60053E-01  7680   0.101E+00    0.111E-01
RMM:   2    -0.370363796776E+03   -0.17657E-02   -0.71882E-03  7695   0.153E-01    0.401E-01
RMM:   3    -0.370362693261E+03    0.11035E-02   -0.58404E-04  8124   0.345E-02    0.894E-02
RMM:   4    -0.370362745244E+03   -0.51983E-04   -0.23360E-04  7680   0.192E-02    0.140E-01
RMM:   5    -0.370362623091E+03    0.12215E-03   -0.70616E-05  7324   0.116E-02    0.733E-02
RMM:   6    -0.370362728060E+03   -0.10497E-03   -0.13856E-04  7670   0.150E-02    0.139E-01
RMM:   7    -0.370362627847E+03    0.10021E-03   -0.78415E-05  7387   0.115E-02    0.670E-02
RMM:   8    -0.370362601014E+03    0.26833E-04   -0.19946E-05  4336   0.604E-03    0.362E-02
RMM:   9    -0.370362593793E+03    0.72208E-05   -0.75937E-06  3969   0.397E-03
   7 F= -.37036259E+03 E0= -.37034833E+03  d E =-.732770E-02
       N       E                     dE             d eps       ncg     rms          rms(c)
DAV:   1    -0.370362368427E+03    0.23259E-03   -0.69966E-01  7680   0.109E+00    0.156E-01
RMM:   2    -0.370366818376E+03   -0.44499E-02   -0.84279E-03  7739   0.163E-01    0.753E-01
RMM:   3    -0.370364363241E+03    0.24551E-02   -0.54087E-04  8294   0.310E-02    0.473E-01
RMM:   4    -0.370364197471E+03    0.16577E-03   -0.45263E-04  7720   0.271E-02    0.436E-01
RMM:   5    -0.370363451818E+03    0.74565E-03   -0.45603E-04  7731   0.259E-02    0.270E-01
RMM:   6    -0.370363256526E+03    0.19529E-03   -0.24112E-04  7722   0.197E-02    0.172E-01
RMM:   7    -0.370363103486E+03    0.15304E-03   -0.12358E-04  7630   0.138E-02    0.642E-02
RMM:   8    -0.370363084413E+03    0.19073E-04   -0.25132E-05  4457   0.684E-03    0.363E-02
RMM:   9    -0.370363075828E+03    0.85856E-05   -0.11672E-05  4034   0.455E-03
   8 F= -.37036308E+03 E0= -.37034859E+03  d E =-.482035E-03
       N       E                     dE             d eps       ncg     rms          rms(c)
DAV:   1    -0.370363077904E+03    0.65087E-05   -0.35246E-02  7728   0.246E-01    0.328E-02
RMM:   2    -0.370363225399E+03   -0.14749E-03   -0.37736E-04  7732   0.354E-02    0.132E-01
RMM:   3    -0.370363173141E+03    0.52258E-04   -0.18299E-05  4209   0.656E-03    0.101E-01
RMM:   4    -0.370363175739E+03   -0.25973E-05   -0.17414E-05  4246   0.604E-03
   9 F= -.37036318E+03 E0= -.37034879E+03  d E =-.581946E-03
