  66  66   0   0
  0.5189179E+02  0.1121440E-08  0.1121440E-08  0.3144560E-08  0.1500000E-16
  1.000000000000000E-004
  CAR 
 Pt                                      
      5.91942741    -25.77162347  301     -0.91613188      1.00000000
    -25.772  0.0000E+00  0.0000E+00
    -25.666  0.0000E+00  0.0000E+00
    -25.560  0.0000E+00  0.0000E+00
    -25.455  0.0000E+00  0.0000E+00
    -25.349  0.0000E+00  0.0000E+00
    -25.243  0.0000E+00  0.0000E+00
    -25.138 -0.2801E-29 -0.2959E-30
    -25.032 -0.2016E-22 -0.2129E-23
    -24.927 -0.1521E-16 -0.1607E-17
    -24.821 -0.1145E-11 -0.1210E-12
    -24.715 -0.8957E-08 -0.9463E-09
    -24.610 -0.6700E-05 -0.7087E-06
    -24.504 -0.3878E-03 -0.4167E-04
    -24.398  0.1532E-02  0.1201E-03
    -24.293  0.1712E-01  0.1928E-02
    -24.187  0.5274E-02  0.2486E-02
    -24.081 -0.6638E-03  0.2415E-02
    -23.976 -0.2688E-04  0.2413E-02
    -23.870 -0.6999E-07  0.2413E-02
    -23.765 -0.1692E-10  0.2413E-02
    -23.659 -0.4104E-15  0.2413E-02
    -23.553  0.0000E+00  0.2413E-02
    -23.448  0.0000E+00  0.2413E-02
    -23.342  0.0000E+00  0.2413E-02
    -23.236  0.0000E+00  0.2413E-02
    -23.131  0.0000E+00  0.2413E-02
    -23.025  0.0000E+00  0.2413E-02
    -22.919  0.0000E+00  0.2413E-02
    -22.814  0.0000E+00  0.2413E-02
    -22.708  0.0000E+00  0.2413E-02
    -22.603  0.0000E+00  0.2413E-02
    -22.497  0.0000E+00  0.2413E-02
    -22.391  0.0000E+00  0.2413E-02
    -22.286  0.0000E+00  0.2413E-02
    -22.180  0.0000E+00  0.2413E-02
    -22.074  0.0000E+00  0.2413E-02
    -21.969  0.0000E+00  0.2413E-02
    -21.863  0.0000E+00  0.2413E-02
    -21.757  0.0000E+00  0.2413E-02
    -21.652  0.0000E+00  0.2413E-02
    -21.546  0.0000E+00  0.2413E-02
    -21.441  0.0000E+00  0.2413E-02
    -21.335  0.0000E+00  0.2413E-02
    -21.229  0.0000E+00  0.2413E-02
    -21.124  0.0000E+00  0.2413E-02
    -21.018  0.0000E+00  0.2413E-02
    -20.912  0.0000E+00  0.2413E-02
    -20.807  0.0000E+00  0.2413E-02
    -20.701  0.0000E+00  0.2413E-02
    -20.595  0.0000E+00  0.2413E-02
    -20.490  0.0000E+00  0.2413E-02
    -20.384  0.0000E+00  0.2413E-02
    -20.279  0.0000E+00  0.2413E-02
    -20.173  0.0000E+00  0.2413E-02
    -20.067  0.0000E+00  0.2413E-02
    -19.962  0.0000E+00  0.2413E-02
    -19.856  0.0000E+00  0.2413E-02
    -19.750  0.0000E+00  0.2413E-02
    -19.645  0.0000E+00  0.2413E-02
    -19.539  0.0000E+00  0.2413E-02
    -19.433  0.0000E+00  0.2413E-02
    -19.328  0.0000E+00  0.2413E-02
    -19.222  0.0000E+00  0.2413E-02
    -19.117  0.0000E+00  0.2413E-02
    -19.011  0.0000E+00  0.2413E-02
    -18.905  0.0000E+00  0.2413E-02
    -18.800  0.0000E+00  0.2413E-02
    -18.694  0.0000E+00  0.2413E-02
    -18.588  0.0000E+00  0.2413E-02
    -18.483  0.0000E+00  0.2413E-02
    -18.377  0.0000E+00  0.2413E-02
    -18.271  0.0000E+00  0.2413E-02
    -18.166  0.0000E+00  0.2413E-02
    -18.060  0.0000E+00  0.2413E-02
    -17.954  0.0000E+00  0.2413E-02
    -17.849  0.0000E+00  0.2413E-02
    -17.743  0.0000E+00  0.2413E-02
    -17.638  0.0000E+00  0.2413E-02
    -17.532  0.0000E+00  0.2413E-02
    -17.426  0.0000E+00  0.2413E-02
    -17.321  0.0000E+00  0.2413E-02
    -17.215  0.0000E+00  0.2413E-02
    -17.109  0.0000E+00  0.2413E-02
    -17.004  0.0000E+00  0.2413E-02
    -16.898  0.0000E+00  0.2413E-02
    -16.792  0.0000E+00  0.2413E-02
    -16.687  0.0000E+00  0.2413E-02
    -16.581  0.0000E+00  0.2413E-02
    -16.476  0.0000E+00  0.2413E-02
    -16.370  0.0000E+00  0.2413E-02
    -16.264  0.0000E+00  0.2413E-02
    -16.159  0.0000E+00  0.2413E-02
    -16.053  0.0000E+00  0.2413E-02
    -15.947  0.0000E+00  0.2413E-02
    -15.842  0.0000E+00  0.2413E-02
    -15.736  0.0000E+00  0.2413E-02
    -15.630  0.0000E+00  0.2413E-02
    -15.525  0.0000E+00  0.2413E-02
    -15.419  0.0000E+00  0.2413E-02
    -15.314  0.0000E+00  0.2413E-02
    -15.208  0.0000E+00  0.2413E-02
    -15.102  0.0000E+00  0.2413E-02
    -14.997  0.0000E+00  0.2413E-02
    -14.891  0.0000E+00  0.2413E-02
    -14.785  0.0000E+00  0.2413E-02
    -14.680  0.0000E+00  0.2413E-02
    -14.574  0.0000E+00  0.2413E-02
    -14.468  0.0000E+00  0.2413E-02
    -14.363  0.0000E+00  0.2413E-02
    -14.257  0.0000E+00  0.2413E-02
    -14.152  0.0000E+00  0.2413E-02
    -14.046  0.0000E+00  0.2413E-02
    -13.940  0.0000E+00  0.2413E-02
    -13.835  0.0000E+00  0.2413E-02
    -13.729  0.0000E+00  0.2413E-02
    -13.623  0.0000E+00  0.2413E-02
    -13.518  0.0000E+00  0.2413E-02
    -13.412  0.0000E+00  0.2413E-02
    -13.306  0.0000E+00  0.2413E-02
    -13.201  0.0000E+00  0.2413E-02
    -13.095  0.0000E+00  0.2413E-02
    -12.990  0.0000E+00  0.2413E-02
    -12.884  0.0000E+00  0.2413E-02
    -12.778  0.0000E+00  0.2413E-02
    -12.673  0.0000E+00  0.2413E-02
    -12.567  0.0000E+00  0.2413E-02
    -12.461  0.0000E+00  0.2413E-02
    -12.356  0.0000E+00  0.2413E-02
    -12.250  0.0000E+00  0.2413E-02
    -12.144  0.0000E+00  0.2413E-02
    -12.039 -0.8304E-36  0.2413E-02
    -11.933 -0.3962E-28  0.2413E-02
    -11.828 -0.1993E-21  0.2413E-02
    -11.722 -0.1020E-15  0.2413E-02
    -11.616 -0.5503E-11  0.2413E-02
    -11.511 -0.2984E-07  0.2413E-02
    -11.405 -0.1523E-04  0.2411E-02
    -11.299 -0.5505E-03  0.2353E-02
    -11.194  0.3449E-02  0.2717E-02
    -11.088  0.1758E-01  0.4574E-02
    -10.982  0.2894E-02  0.4880E-02
    -10.877 -0.5081E-03  0.4826E-02
    -10.771 -0.1241E-04  0.4825E-02
    -10.666 -0.2203E-07  0.4825E-02
    -10.560 -0.1870E-08  0.4825E-02
    -10.454 -0.9548E-06  0.4825E-02
    -10.349 -0.3606E-04  0.4821E-02
    -10.243  0.9791E-04  0.4832E-02
    -10.137  0.1407E-02  0.4980E-02
    -10.032  0.6318E-02  0.5648E-02
     -9.926  0.2172E-02  0.5877E-02
     -9.820  0.3058E-02  0.6200E-02
     -9.715  0.7765E-02  0.7020E-02
     -9.609  0.5948E-02  0.7649E-02
     -9.504  0.3079E-03  0.7681E-02
     -9.398  0.4721E-03  0.7731E-02
     -9.292  0.1144E-01  0.8940E-02
     -9.187  0.5744E-02  0.9547E-02
     -9.081  0.5042E-02  0.1008E-01
     -8.975  0.3294E-02  0.1043E-01
     -8.870  0.1055E-03  0.1044E-01
     -8.764  0.9274E-02  0.1142E-01
     -8.658  0.1996E-01  0.1353E-01
     -8.553  0.9093E-02  0.1449E-01
     -8.447  0.1125E-01  0.1568E-01
     -8.342  0.1927E-01  0.1771E-01
     -8.236  0.1217E-01  0.1900E-01
     -8.130  0.4641E-02  0.1949E-01
     -8.025  0.2605E-01  0.2224E-01
     -7.919  0.2337E-01  0.2471E-01
     -7.813  0.1209E-01  0.2599E-01
     -7.708  0.7991E-02  0.2683E-01
     -7.602  0.1287E-01  0.2819E-01
     -7.496  0.6234E-01  0.3477E-01
     -7.391  0.8571E-01  0.4383E-01
     -7.285  0.5500E-01  0.4964E-01
     -7.180  0.4650E-01  0.5455E-01
     -7.074  0.8172E-01  0.6318E-01
     -6.968  0.6065E-01  0.6959E-01
     -6.863  0.6280E-01  0.7622E-01
     -6.757  0.7461E-01  0.8410E-01
     -6.651  0.8572E-01  0.9316E-01
     -6.546  0.1215E+00  0.1060E+00
     -6.440  0.1223E+00  0.1189E+00
     -6.334  0.1055E+00  0.1301E+00
     -6.229  0.1194E+00  0.1427E+00
     -6.123  0.1015E+00  0.1534E+00
     -6.018  0.8311E-01  0.1622E+00
     -5.912  0.8288E-01  0.1709E+00
     -5.806  0.5027E-01  0.1762E+00
     -5.701  0.5209E-01  0.1817E+00
     -5.595  0.1196E+00  0.1944E+00
     -5.489  0.1120E+00  0.2062E+00
     -5.384  0.8677E-01  0.2154E+00
     -5.278  0.9470E-01  0.2254E+00
     -5.172  0.1111E+00  0.2371E+00
     -5.067  0.1060E+00  0.2483E+00
     -4.961  0.9090E-01  0.2579E+00
     -4.856  0.7925E-01  0.2663E+00
     -4.750  0.9065E-01  0.2759E+00
     -4.644  0.1100E+00  0.2875E+00
     -4.539  0.1330E+00  0.3015E+00
     -4.433  0.1607E+00  0.3185E+00
     -4.327  0.1487E+00  0.3342E+00
     -4.222  0.1188E+00  0.3468E+00
     -4.116  0.1701E+00  0.3647E+00
     -4.010  0.1838E+00  0.3841E+00
     -3.905  0.1783E+00  0.4030E+00
     -3.799  0.1711E+00  0.4210E+00
     -3.694  0.1773E+00  0.4398E+00
     -3.588  0.1717E+00  0.4579E+00
     -3.482  0.1131E+00  0.4699E+00
     -3.377  0.8750E-01  0.4791E+00
     -3.271  0.9326E-01  0.4890E+00
     -3.165  0.8858E-01  0.4983E+00
     -3.060  0.8932E-01  0.5077E+00
     -2.954  0.1608E+00  0.5247E+00
     -2.848  0.1645E+00  0.5421E+00
     -2.743  0.1074E+00  0.5535E+00
     -2.637  0.9434E-01  0.5634E+00
     -2.532  0.9287E-01  0.5732E+00
     -2.426  0.1032E+00  0.5841E+00
     -2.320  0.1039E+00  0.5951E+00
     -2.215  0.1162E+00  0.6074E+00
     -2.109  0.1290E+00  0.6210E+00
     -2.003  0.1726E+00  0.6392E+00
     -1.898  0.1583E+00  0.6560E+00
     -1.792  0.1346E+00  0.6702E+00
     -1.686  0.9180E-01  0.6799E+00
     -1.581  0.7240E-01  0.6875E+00
     -1.475  0.1329E+00  0.7016E+00
     -1.370  0.1396E+00  0.7163E+00
     -1.264  0.1139E+00  0.7283E+00
     -1.158  0.1208E+00  0.7411E+00
     -1.053  0.1569E+00  0.7577E+00
     -0.947  0.1935E+00  0.7781E+00
     -0.841  0.1746E+00  0.7966E+00
     -0.736  0.1297E+00  0.8103E+00
     -0.630  0.1174E+00  0.8227E+00
     -0.524  0.7169E-01  0.8302E+00
     -0.419  0.1627E-01  0.8320E+00
     -0.313  0.2787E-01  0.8349E+00
     -0.208  0.2650E-01  0.8377E+00
     -0.102  0.1713E-01  0.8395E+00
      0.004  0.2480E-01  0.8421E+00
      0.109  0.4179E-01  0.8465E+00
      0.215  0.2904E-01  0.8496E+00
      0.321  0.4410E-01  0.8543E+00
      0.426  0.2665E-01  0.8571E+00
      0.532  0.2043E-01  0.8592E+00
      0.638  0.1322E-01  0.8606E+00
      0.743  0.2982E-02  0.8610E+00
      0.849  0.1557E-01  0.8626E+00
      0.954  0.2173E-01  0.8649E+00
      1.060  0.3127E-01  0.8682E+00
      1.166  0.3138E-01  0.8715E+00
      1.271  0.3252E-01  0.8749E+00
      1.377  0.3619E-01  0.8788E+00
      1.483  0.3139E-01  0.8821E+00
      1.588  0.3065E-01  0.8853E+00
      1.694  0.1323E-01  0.8867E+00
      1.800  0.2054E-01  0.8889E+00
      1.905  0.1846E-01  0.8908E+00
      2.011  0.2164E-01  0.8931E+00
      2.117  0.3539E-01  0.8969E+00
      2.222  0.1977E-01  0.8990E+00
      2.328  0.2350E-01  0.9014E+00
      2.433  0.3202E-01  0.9048E+00
      2.539  0.2958E-01  0.9079E+00
      2.645  0.2141E-01  0.9102E+00
      2.750  0.1543E-01  0.9118E+00
      2.856  0.2694E-01  0.9147E+00
      2.962  0.3499E-01  0.9184E+00
      3.067  0.2549E-01  0.9211E+00
      3.173  0.2444E-01  0.9237E+00
      3.279  0.1883E-01  0.9256E+00
      3.384  0.3499E-01  0.9293E+00
      3.490  0.3474E-01  0.9330E+00
      3.595  0.6617E-02  0.9337E+00
      3.701  0.1801E-01  0.9356E+00
      3.807  0.1484E-01  0.9372E+00
      3.912  0.6394E-02  0.9379E+00
      4.018  0.1224E-01  0.9391E+00
      4.124  0.2215E-01  0.9415E+00
      4.229  0.2316E-01  0.9439E+00
      4.335  0.8793E-02  0.9449E+00
      4.441  0.1535E-02  0.9450E+00
      4.546  0.6245E-02  0.9457E+00
      4.652  0.4872E-03  0.9457E+00
      4.757 -0.1366E-03  0.9457E+00
      4.863 -0.2219E-05  0.9457E+00
      4.969 -0.2828E-08  0.9457E+00
      5.074 -0.3464E-12  0.9457E+00
      5.180 -0.4437E-17  0.9457E+00
      5.286  0.0000E+00  0.9457E+00
      5.391  0.0000E+00  0.9457E+00
      5.497  0.0000E+00  0.9457E+00
      5.603  0.0000E+00  0.9457E+00
      5.708  0.0000E+00  0.9457E+00
      5.814  0.0000E+00  0.9457E+00
      5.919  0.0000E+00  0.9457E+00
