   66   66  829    1
  0.5189179E+02  0.1121440E-08  0.1121440E-08  0.3144560E-08  0.1500000E-16
  1.000000000000000E-004
  CAR 
 Pt                                      
    650     10    392
 
  0.0000000E+00  0.0000000E+00  0.0000000E+00  0.6250000E-01
    1      -24.331121   1.000000
    2      -11.145415   1.000000
    3      -10.192368   1.000000
    4       -8.893074   1.000000
    5       -8.478184   1.000000
    6       -8.434905   1.000000
    7       -8.432701   1.000000
    8       -8.430678   1.000000
    9       -8.407071   1.000000
   10       -8.403955   1.000000
   11       -8.212387   1.000000
   12       -7.796604   1.000000
   13       -7.704796   1.000000
   14       -7.506734   1.000000
   15       -7.486980   1.000000
   16       -7.448045   1.000000
   17       -7.438263   1.000000
   18       -7.416949   1.000000
   19       -7.370566   1.000000
   20       -7.366473   1.000000
   21       -7.363643   1.000000
   22       -7.359285   1.000000
   23       -7.356836   1.000000
   24       -7.299031   1.000000
   25       -7.280295   1.000000
   26       -7.271965   1.000000
   27       -7.263835   1.000000
   28       -6.851388   1.000000
   29       -6.850854   1.000000
   30       -6.833902   1.000000
   31       -6.615225   1.000000
   32       -6.611987   1.000000
   33       -6.610463   1.000000
   34       -6.602706   1.000000
   35       -6.602178   1.000000
   36       -6.593135   1.000000
   37       -6.590350   1.000000
   38       -6.586734   1.000000
   39       -6.584970   1.000000
   40       -6.583912   1.000000
   41       -6.581999   1.000000
   42       -6.581041   1.000000
   43       -6.563493   1.000000
   44       -6.561352   1.000000
   45       -6.559410   1.000000
   46       -6.523530   1.000000
   47       -6.520637   1.000000
   48       -6.512829   1.000000
   49       -6.467882   1.000000
   50       -6.432194   1.000000
   51       -6.430371   1.000000
   52       -6.421088   1.000000
   53       -6.415281   1.000000
   54       -6.403681   1.000000
   55       -6.262784   1.000000
   56       -6.260815   1.000000
   57       -6.244873   1.000000
   58       -6.242750   1.000000
   59       -6.241989   1.000000
   60       -6.221789   1.000000
   61       -6.129659   1.000000
   62       -6.126945   1.000000
   63       -6.117255   1.000000
   64       -6.114216   1.000000
   65       -6.110059   1.000000
   66       -6.090108   1.000000
   67       -5.785017   1.000000
   68       -5.776478   1.000000
   69       -5.773940   1.000000
   70       -5.769467   1.000000
   71       -5.767901   1.000000
   72       -5.765091   1.000000
   73       -5.722601   1.000000
   74       -5.720363   1.000000
   75       -5.703470   1.000000
   76       -5.638766   1.000000
   77       -5.638342   1.000000
   78       -5.632309   1.000000
   79       -5.629431   1.000000
   80       -5.624019   1.000000
   81       -5.611296   1.000000
   82       -5.604352   1.000000
   83       -5.595849   1.000000
   84       -5.589893   1.000000
   85       -5.574802   1.000000
   86       -5.571106   1.000000
   87       -5.560840   1.000000
   88       -5.250685   1.000000
   89       -5.244815   1.000000
   90       -5.238127   1.000000
   91       -5.214940   1.000000
   92       -5.213168   1.000000
   93       -5.203563   1.000000
   94       -5.182081   1.000000
   95       -5.174302   1.000000
   96       -5.159409   1.000000
   97       -5.153299   1.000000
   98       -5.152114   1.000000
   99       -5.151464   1.000000
  100       -5.143651   1.000000
  101       -5.138218   1.000000
  102       -5.134636   1.000000
  103       -5.132731   1.000000
  104       -5.130592   1.000000
  105       -5.109698   1.000000
  106       -5.012007   1.000000
  107       -5.010205   1.000000
  108       -4.996120   1.000000
  109       -4.989822   1.000000
  110       -4.987665   1.000000
  111       -4.976715   1.000000
  112       -4.810923   1.000000
  113       -4.794963   1.000000
  114       -4.769770   1.000000
  115       -4.741481   1.000000
  116       -4.734302   1.000000
  117       -4.732164   1.000000
  118       -4.719498   1.000000
  119       -4.716384   1.000000
  120       -4.705050   1.000000
  121       -4.600181   1.000000
  122       -4.594439   1.000000
  123       -4.593213   1.000000
  124       -4.584728   1.000000
  125       -4.577722   1.000000
  126       -4.576304   1.000000
  127       -4.562488   1.000000
  128       -4.558661   1.000000
  129       -4.548868   1.000000
  130       -4.537351   1.000000
  131       -4.448922   1.000000
  132       -4.433024   1.000000
  133       -4.422551   1.000000
  134       -4.415061   1.000000
  135       -4.409000   1.000000
  136       -4.392948   1.000000
  137       -4.390160   1.000000
  138       -4.389219   1.000000
  139       -4.373345   1.000000
  140       -4.298900   1.000000
  141       -4.296864   1.000000
  142       -4.239783   1.000000
  143       -4.227830   1.000000
  144       -4.226154   1.000000
  145       -4.222279   1.000000
  146       -4.218852   1.000000
  147       -4.191779   1.000000
  148       -4.165062   1.000000
  149       -4.152726   1.000000
  150       -4.147412   1.000000
  151       -4.083002   1.000000
  152       -4.059705   1.000000
  153       -4.041936   1.000000
  154       -4.008772   1.000000
  155       -3.998551   1.000000
  156       -3.977577   1.000000
  157       -3.973499   1.000000
  158       -3.961057   1.000000
  159       -3.949386   1.000000
  160       -3.945909   1.000000
  161       -3.915197   1.000000
  162       -3.911284   1.000000
  163       -3.907739   1.000000
  164       -3.889499   1.000000
  165       -3.887537   1.000000
  166       -3.880236   1.000000
  167       -3.836458   1.000000
  168       -3.828483   1.000000
  169       -3.825313   1.000000
  170       -3.816432   1.000000
  171       -3.809497   1.000000
  172       -3.807559   1.000000
  173       -3.807438   1.000000
  174       -3.803638   1.000000
  175       -3.798254   1.000000
  176       -3.795907   1.000000
  177       -3.793683   1.000000
  178       -3.792009   1.000000
  179       -3.785686   1.000000
  180       -3.782688   1.000000
  181       -3.782444   1.000000
  182       -3.769862   1.000000
  183       -3.761033   1.000000
  184       -3.754274   1.000000
  185       -3.705167   1.000000
  186       -3.700287   1.000000
  187       -3.651584   1.000000
  188       -3.647944   1.000000
  189       -3.645340   1.000000
  190       -3.638687   1.000000
  191       -3.632017   1.000000
  192       -3.631146   1.000000
  193       -3.598456   1.000000
  194       -3.596292   1.000000
  195       -3.594345   1.000000
  196       -3.564411   1.000000
  197       -3.528181   1.000000
  198       -3.513214   1.000000
  199       -3.509357   1.000000
  200       -3.498983   1.000000
  201       -3.497515   1.000000
  202       -3.490107   1.000000
  203       -3.473622   1.000000
  204       -3.468041   1.000000
  205       -3.443845   1.000000
  206       -3.391582   1.000000
  207       -3.154748   1.000000
  208       -3.151410   1.000000
  209       -3.126747   1.000000
  210       -3.115349   1.000000
  211       -3.110639   1.000000
  212       -3.098079   1.000000
  213       -3.080028   1.000000
  214       -3.077109   1.000000
  215       -3.042088   1.000000
  216       -3.021412   1.000000
  217       -3.017650   1.000000
  218       -3.006112   1.000000
  219       -3.001047   1.000000
  220       -2.994150   1.000000
  221       -2.993591   1.000000
  222       -2.949498   1.000000
  223       -2.948923   1.000000
  224       -2.886265   1.000000
  225       -2.882243   1.000000
  226       -2.878347   1.000000
  227       -2.863293   1.000000
  228       -2.861189   1.000000
  229       -2.851061   1.000000
  230       -2.836124   1.000000
  231       -2.758957   1.000000
  232       -2.751250   1.000000
  233       -2.726738   1.000000
  234       -2.723491   1.000000
  235       -2.723113   1.000000
  236       -2.597176   1.000000
  237       -2.565691   1.000000
  238       -2.559719   1.000000
  239       -2.551069   1.000000
  240       -2.514294   1.000000
  241       -2.493839   1.000000
  242       -2.488175   1.000000
  243       -2.478054   1.000000
  244       -2.477243   1.000000
  245       -2.414228   1.000000
  246       -2.395125   1.000000
  247       -2.383228   1.000000
  248       -2.367512   1.000000
  249       -2.364655   1.000000
  250       -2.364342   1.000000
  251       -2.343129   1.000000
  252       -2.338831   1.000000
  253       -2.332090   1.000000
  254       -2.328715   1.000000
  255       -2.326949   1.000000
  256       -2.318861   1.000000
  257       -2.263453   1.000000
  258       -2.261004   1.000000
  259       -2.255016   1.000000
  260       -2.213491   1.000000
  261       -2.178613   1.000000
  262       -2.176580   1.000000
  263       -2.128177   1.000000
  264       -2.121066   1.000000
  265       -2.102800   1.000000
  266       -2.101373   1.000000
  267       -2.094097   1.000000
  268       -2.088526   1.000000
  269       -2.085933   1.000000
  270       -2.078762   1.000000
  271       -2.056554   1.000000
  272       -2.055685   1.000000
  273       -2.050553   1.000000
  274       -2.040470   1.000000
  275       -2.037766   1.000000
  276       -1.961759   1.000000
  277       -1.958931   1.000000
  278       -1.925637   1.000000
  279       -1.916538   1.000000
  280       -1.915533   1.000000
  281       -1.912756   1.000000
  282       -1.857813   1.000000
  283       -1.856684   1.000000
  284       -1.812143   1.000000
  285       -1.764977   1.000000
  286       -1.642523   1.000000
  287       -1.638506   1.000000
  288       -1.585101   1.000000
  289       -1.515957   1.000000
  290       -1.514785   1.000000
  291       -1.430147   1.000000
  292       -1.411980   1.000000
  293       -1.411191   1.000000
  294       -1.410139   1.000000
  295       -1.396238   1.000000
  296       -1.394215   1.000000
  297       -1.320912   1.000000
  298       -1.219978   1.000075
  299       -1.211799   1.000119
  300       -1.210250   1.000129
  301       -1.201945   1.000202
  302       -1.199682   1.000227
  303       -1.136758   1.003883
  304       -1.129671   1.005038
  305       -1.119784   1.007092
  306       -1.042662   1.035218
  307       -1.041620   1.035324
  308       -1.015065   1.023985
  309       -0.961983   0.846470
  310       -0.948424   0.758122
  311       -0.936749   0.670429
  312       -0.887436   0.267886
  313       -0.880661   0.219731
  314       -0.870947   0.157485
  315       -0.869823   0.150842
  316       -0.855230   0.075980
  317       -0.853671   0.069249
  318       -0.851865   0.061757
  319       -0.840957   0.023348
  320       -0.838700   0.016819
  321       -0.835519   0.008401
  322       -0.829984  -0.004146
  323       -0.821210  -0.019024
  324       -0.818711  -0.022240
  325       -0.815883  -0.025383
  326       -0.813252  -0.027863
  327       -0.657283  -0.000773
  328       -0.656398  -0.000741
  329       -0.650230  -0.000553
  330       -0.624352  -0.000147
  331       -0.622051  -0.000130
  332       -0.621245  -0.000124
  333       -0.618198  -0.000105
  334       -0.612683  -0.000077
  335       -0.612083  -0.000074
  336       -0.608774  -0.000062
  337       -0.605030  -0.000050
  338       -0.601148  -0.000039
  339       -0.598918  -0.000035
  340       -0.596782  -0.000030
  341       -0.448061  -0.000000
  342       -0.447820  -0.000000
  343       -0.403673  -0.000000
  344       -0.381740  -0.000000
  345       -0.381511  -0.000000
  346       -0.369674  -0.000000
  347       -0.354618  -0.000000
  348        0.008799  -0.000000
  349        0.018098  -0.000000
  350        0.023705  -0.000000
  351        0.516438  -0.000000
  352        1.017929  -0.000000
  353        1.020433  -0.000000
  354        1.043059  -0.000000
  355        1.050934  -0.000000
  356        1.053861  -0.000000
  357        1.061010  -0.000000
  358        1.221894  -0.000000
  359        1.232100  -0.000000
  360        1.424558  -0.000000
  361        1.429533  -0.000000
  362        1.466457  -0.000000
  363        1.469092  -0.000000
  364        1.483931  -0.000000
  365        1.490987  -0.000000
  366        1.538811  -0.000000
  367        1.540079  -0.000000
  368        1.546161  -0.000000
  369        1.550011  -0.000000
  370        1.553877  -0.000000
  371        1.563165  -0.000000
  372        1.767968  -0.000000
  373        1.791596  -0.000000
  374        1.799475  -0.000000
  375        2.021814   0.000000
  376        2.030252   0.000000
  377        2.073179   0.000000
  378        2.169761   0.000000
  379        2.446697   0.000000
  380        2.469283   0.000000
  381        2.693245   0.000000
  382        2.702916   0.000000
  383        2.705163   0.000000
  384        2.926701   0.000000
  385        3.085423   0.000000
  386        3.124379   0.000000
  387        3.767903   0.000000
  388        3.783324   0.000000
  389        3.798873   0.000000
  390        3.809227   0.000000
  391        3.813891   0.000000
  392        4.124331   0.000000
 
  0.2500000E+00  0.4280917E-16  0.0000000E+00  0.1250000E+00
    1      -24.330983   1.000000
    2      -11.143787   1.000000
    3      -10.061808   1.000000
    4       -9.098043   1.000000
    5       -8.765881   1.000000
    6       -8.675607   1.000000
    7       -8.673125   1.000000
    8       -8.329154   1.000000
    9       -8.008767   1.000000
   10       -7.985070   1.000000
   11       -7.850773   1.000000
   12       -7.820889   1.000000
   13       -7.665688   1.000000
   14       -7.581564   1.000000
   15       -7.520180   1.000000
   16       -7.507638   1.000000
   17       -7.469253   1.000000
   18       -7.452877   1.000000
   19       -7.409896   1.000000
   20       -7.356849   1.000000
   21       -7.346820   1.000000
   22       -7.242748   1.000000
   23       -7.191851   1.000000
   24       -7.178753   1.000000
   25       -7.125706   1.000000
   26       -7.119659   1.000000
   27       -7.092719   1.000000
   28       -6.940903   1.000000
   29       -6.928667   1.000000
   30       -6.830054   1.000000
   31       -6.795196   1.000000
   32       -6.789612   1.000000
   33       -6.771811   1.000000
   34       -6.756672   1.000000
   35       -6.748696   1.000000
   36       -6.700535   1.000000
   37       -6.631768   1.000000
   38       -6.624203   1.000000
   39       -6.612541   1.000000
   40       -6.606440   1.000000
   41       -6.581892   1.000000
   42       -6.573205   1.000000
   43       -6.568266   1.000000
   44       -6.548327   1.000000
   45       -6.512276   1.000000
   46       -6.503221   1.000000
   47       -6.493459   1.000000
   48       -6.481223   1.000000
   49       -6.458223   1.000000
   50       -6.453884   1.000000
   51       -6.442019   1.000000
   52       -6.404211   1.000000
   53       -6.395864   1.000000
   54       -6.378700   1.000000
   55       -6.361716   1.000000
   56       -6.351364   1.000000
   57       -6.341259   1.000000
   58       -6.277992   1.000000
   59       -6.215340   1.000000
   60       -6.210324   1.000000
   61       -6.173713   1.000000
   62       -6.168497   1.000000
   63       -6.123638   1.000000
   64       -6.102254   1.000000
   65       -6.087752   1.000000
   66       -5.996207   1.000000
   67       -5.989003   1.000000
   68       -5.983038   1.000000
   69       -5.970788   1.000000
   70       -5.945793   1.000000
   71       -5.918289   1.000000
   72       -5.890566   1.000000
   73       -5.888354   1.000000
   74       -5.692980   1.000000
   75       -5.688609   1.000000
   76       -5.679695   1.000000
   77       -5.677449   1.000000
   78       -5.657509   1.000000
   79       -5.615204   1.000000
   80       -5.610919   1.000000
   81       -5.543186   1.000000
   82       -5.538998   1.000000
   83       -5.518773   1.000000
   84       -5.513602   1.000000
   85       -5.483326   1.000000
   86       -5.474902   1.000000
   87       -5.395229   1.000000
   88       -5.392564   1.000000
   89       -5.353078   1.000000
   90       -5.333262   1.000000
   91       -5.330592   1.000000
   92       -5.322730   1.000000
   93       -5.287599   1.000000
   94       -5.264670   1.000000
   95       -5.262302   1.000000
   96       -5.254220   1.000000
   97       -5.201540   1.000000
   98       -5.191742   1.000000
   99       -5.157541   1.000000
  100       -5.148039   1.000000
  101       -5.118962   1.000000
  102       -5.102107   1.000000
  103       -5.074387   1.000000
  104       -5.069516   1.000000
  105       -5.061098   1.000000
  106       -5.052685   1.000000
  107       -4.990976   1.000000
  108       -4.969486   1.000000
  109       -4.960020   1.000000
  110       -4.912989   1.000000
  111       -4.830390   1.000000
  112       -4.810113   1.000000
  113       -4.777600   1.000000
  114       -4.771129   1.000000
  115       -4.739311   1.000000
  116       -4.685773   1.000000
  117       -4.669758   1.000000
  118       -4.661480   1.000000
  119       -4.637447   1.000000
  120       -4.617789   1.000000
  121       -4.601743   1.000000
  122       -4.589119   1.000000
  123       -4.583719   1.000000
  124       -4.570833   1.000000
  125       -4.564709   1.000000
  126       -4.559549   1.000000
  127       -4.549736   1.000000
  128       -4.545090   1.000000
  129       -4.530954   1.000000
  130       -4.508262   1.000000
  131       -4.476083   1.000000
  132       -4.470080   1.000000
  133       -4.454402   1.000000
  134       -4.451025   1.000000
  135       -4.419311   1.000000
  136       -4.389528   1.000000
  137       -4.386664   1.000000
  138       -4.370472   1.000000
  139       -4.366391   1.000000
  140       -4.336381   1.000000
  141       -4.300693   1.000000
  142       -4.252977   1.000000
  143       -4.232818   1.000000
  144       -4.222229   1.000000
  145       -4.219040   1.000000
  146       -4.192102   1.000000
  147       -4.168390   1.000000
  148       -4.164874   1.000000
  149       -4.149345   1.000000
  150       -4.138224   1.000000
  151       -4.127075   1.000000
  152       -4.122094   1.000000
  153       -4.105152   1.000000
  154       -4.083181   1.000000
  155       -4.079891   1.000000
  156       -4.048346   1.000000
  157       -4.024415   1.000000
  158       -3.993568   1.000000
  159       -3.987833   1.000000
  160       -3.982763   1.000000
  161       -3.971361   1.000000
  162       -3.968914   1.000000
  163       -3.946641   1.000000
  164       -3.938333   1.000000
  165       -3.908076   1.000000
  166       -3.904100   1.000000
  167       -3.885447   1.000000
  168       -3.880206   1.000000
  169       -3.868398   1.000000
  170       -3.847903   1.000000
  171       -3.840913   1.000000
  172       -3.825470   1.000000
  173       -3.816755   1.000000
  174       -3.808857   1.000000
  175       -3.761813   1.000000
  176       -3.758411   1.000000
  177       -3.734715   1.000000
  178       -3.731477   1.000000
  179       -3.723479   1.000000
  180       -3.716720   1.000000
  181       -3.705474   1.000000
  182       -3.687468   1.000000
  183       -3.671030   1.000000
  184       -3.667049   1.000000
  185       -3.638042   1.000000
  186       -3.616939   1.000000
  187       -3.615001   1.000000
  188       -3.610431   1.000000
  189       -3.600748   1.000000
  190       -3.581283   1.000000
  191       -3.577913   1.000000
  192       -3.566922   1.000000
  193       -3.563548   1.000000
  194       -3.542818   1.000000
  195       -3.502758   1.000000
  196       -3.457329   1.000000
  197       -3.447617   1.000000
  198       -3.439554   1.000000
  199       -3.429950   1.000000
  200       -3.421438   1.000000
  201       -3.360561   1.000000
  202       -3.345695   1.000000
  203       -3.319016   1.000000
  204       -3.299189   1.000000
  205       -3.282608   1.000000
  206       -3.245146   1.000000
  207       -3.222931   1.000000
  208       -3.217464   1.000000
  209       -3.205230   1.000000
  210       -3.203426   1.000000
  211       -3.143157   1.000000
  212       -3.109717   1.000000
  213       -3.090790   1.000000
  214       -3.045114   1.000000
  215       -3.036918   1.000000
  216       -3.017455   1.000000
  217       -3.001935   1.000000
  218       -2.998142   1.000000
  219       -2.984430   1.000000
  220       -2.965559   1.000000
  221       -2.949903   1.000000
  222       -2.943600   1.000000
  223       -2.933768   1.000000
  224       -2.932035   1.000000
  225       -2.910018   1.000000
  226       -2.898880   1.000000
  227       -2.878136   1.000000
  228       -2.845045   1.000000
  229       -2.822478   1.000000
  230       -2.812700   1.000000
  231       -2.768605   1.000000
  232       -2.705202   1.000000
  233       -2.670063   1.000000
  234       -2.641918   1.000000
  235       -2.617438   1.000000
  236       -2.608540   1.000000
  237       -2.525807   1.000000
  238       -2.517760   1.000000
  239       -2.490718   1.000000
  240       -2.481087   1.000000
  241       -2.468712   1.000000
  242       -2.454035   1.000000
  243       -2.432306   1.000000
  244       -2.422714   1.000000
  245       -2.412673   1.000000
  246       -2.399442   1.000000
  247       -2.354961   1.000000
  248       -2.328986   1.000000
  249       -2.306354   1.000000
  250       -2.274726   1.000000
  251       -2.260657   1.000000
  252       -2.251748   1.000000
  253       -2.250004   1.000000
  254       -2.237096   1.000000
  255       -2.191803   1.000000
  256       -2.134141   1.000000
  257       -2.118223   1.000000
  258       -2.094275   1.000000
  259       -2.088944   1.000000
  260       -2.081705   1.000000
  261       -2.060951   1.000000
  262       -2.057466   1.000000
  263       -2.045288   1.000000
  264       -2.040737   1.000000
  265       -2.034266   1.000000
  266       -2.024613   1.000000
  267       -1.979708   1.000000
  268       -1.978162   1.000000
  269       -1.950906   1.000000
  270       -1.944646   1.000000
  271       -1.923540   1.000000
  272       -1.922194   1.000000
  273       -1.911243   1.000000
  274       -1.906873   1.000000
  275       -1.885994   1.000000
  276       -1.856179   1.000000
  277       -1.851000   1.000000
  278       -1.813770   1.000000
  279       -1.800956   1.000000
  280       -1.794671   1.000000
  281       -1.787904   1.000000
  282       -1.779869   1.000000
  283       -1.769257   1.000000
  284       -1.751768   1.000000
  285       -1.655069   1.000000
  286       -1.637975   1.000000
  287       -1.626445   1.000000
  288       -1.590616   1.000000
  289       -1.586620   1.000000
  290       -1.531760   1.000000
  291       -1.510774   1.000000
  292       -1.492564   1.000000
  293       -1.487939   1.000000
  294       -1.468331   1.000000
  295       -1.417403   1.000000
  296       -1.412513   1.000000
  297       -1.400757   1.000000
  298       -1.390033   1.000000
  299       -1.366538   1.000000
  300       -1.322767   1.000000
  301       -1.277621   1.000002
  302       -1.243747   1.000018
  303       -1.203341   1.000188
  304       -1.196273   1.000271
  305       -1.188986   1.000393
  306       -1.151349   1.002185
  307       -1.135905   1.004010
  308       -1.114688   1.008374
  309       -1.090606   1.016642
  310       -1.055948   1.031839
  311       -1.031264   1.034541
  312       -1.025855   1.032498
  313       -1.010553   1.018327
  314       -1.002261   1.004110
  315       -0.997612   0.993738
  316       -0.971534   0.898313
  317       -0.966634   0.872841
  318       -0.959540   0.831774
  319       -0.944947   0.732992
  320       -0.940229   0.697513
  321       -0.915843   0.497552
  322       -0.904416   0.401602
  323       -0.877513   0.198631
  324       -0.868126   0.141048
  325       -0.860921   0.102633
  326       -0.852526   0.064462
  327       -0.826560  -0.010649
  328       -0.820950  -0.019378
  329       -0.762472  -0.025995
  330       -0.744217  -0.017721
  331       -0.741528  -0.016588
  332       -0.734443  -0.013791
  333       -0.733741  -0.013530
  334       -0.722167  -0.009668
  335       -0.720287  -0.009122
  336       -0.678428  -0.001971
  337       -0.655055  -0.000696
  338       -0.651674  -0.000593
  339       -0.625137  -0.000153
  340       -0.610363  -0.000067
  341       -0.588010  -0.000018
  342       -0.574865  -0.000008
  343       -0.558511  -0.000003
  344       -0.523552  -0.000000
  345       -0.382681  -0.000000
  346       -0.274673  -0.000000
  347       -0.196337  -0.000000
  348        0.040542  -0.000000
  349        0.041022  -0.000000
  350        0.109099  -0.000000
  351        0.241874  -0.000000
  352        0.252138  -0.000000
  353        0.298335  -0.000000
  354        0.456855  -0.000000
  355        0.470726  -0.000000
  356        0.598263  -0.000000
  357        0.922582  -0.000000
  358        0.999563  -0.000000
  359        1.004758  -0.000000
  360        1.093065  -0.000000
  361        1.170955  -0.000000
  362        1.253879  -0.000000
  363        1.302210  -0.000000
  364        1.340462  -0.000000
  365        1.345172  -0.000000
  366        1.448619  -0.000000
  367        1.461066  -0.000000
  368        1.572527  -0.000000
  369        1.743074  -0.000000
  370        1.799270  -0.000000
  371        1.862982   0.000000
  372        2.017721   0.000000
  373        2.080742   0.000000
  374        2.109594   0.000000
  375        2.268893   0.000000
  376        2.393297   0.000000
  377        2.442273   0.000000
  378        2.653937   0.000000
  379        2.795813   0.000000
  380        2.827697   0.000000
  381        2.941956   0.000000
  382        2.998562   0.000000
  383        3.087423   0.000000
  384        3.134749   0.000000
  385        3.315697   0.000000
  386        3.384384   0.000000
  387        3.396139   0.000000
  388        3.409481   0.000000
  389        3.802147   0.000000
  390        4.173563   0.000000
  391        4.236084   0.000000
  392        4.478925   0.000000
 
  0.5000000E+00  0.8561833E-16  0.0000000E+00  0.6250000E-01
    1      -24.331006   1.000000
    2      -11.142265   1.000000
    3       -9.700879   1.000000
    4       -9.661167   1.000000
    5       -8.761745   1.000000
    6       -8.755518   1.000000
    7       -8.452638   1.000000
    8       -8.398329   1.000000
    9       -8.241356   1.000000
   10       -7.570493   1.000000
   11       -7.564134   1.000000
   12       -7.541507   1.000000
   13       -7.525941   1.000000
   14       -7.492608   1.000000
   15       -7.488530   1.000000
   16       -7.484605   1.000000
   17       -7.453356   1.000000
   18       -7.440938   1.000000
   19       -7.416292   1.000000
   20       -7.283982   1.000000
   21       -7.259234   1.000000
   22       -7.230054   1.000000
   23       -7.213073   1.000000
   24       -7.156849   1.000000
   25       -7.134546   1.000000
   26       -7.124996   1.000000
   27       -7.115732   1.000000
   28       -7.083556   1.000000
   29       -7.074085   1.000000
   30       -6.946400   1.000000
   31       -6.935017   1.000000
   32       -6.914831   1.000000
   33       -6.911191   1.000000
   34       -6.825916   1.000000
   35       -6.819991   1.000000
   36       -6.808041   1.000000
   37       -6.783895   1.000000
   38       -6.670592   1.000000
   39       -6.649267   1.000000
   40       -6.587574   1.000000
   41       -6.581683   1.000000
   42       -6.564724   1.000000
   43       -6.560218   1.000000
   44       -6.547228   1.000000
   45       -6.529125   1.000000
   46       -6.476861   1.000000
   47       -6.456948   1.000000
   48       -6.449812   1.000000
   49       -6.444752   1.000000
   50       -6.438465   1.000000
   51       -6.416442   1.000000
   52       -6.359161   1.000000
   53       -6.342426   1.000000
   54       -6.316685   1.000000
   55       -6.314677   1.000000
   56       -6.301772   1.000000
   57       -6.298384   1.000000
   58       -6.296117   1.000000
   59       -6.282763   1.000000
   60       -6.263833   1.000000
   61       -6.250500   1.000000
   62       -6.234042   1.000000
   63       -6.217338   1.000000
   64       -6.106907   1.000000
   65       -6.100730   1.000000
   66       -6.093976   1.000000
   67       -6.077996   1.000000
   68       -6.070623   1.000000
   69       -6.065423   1.000000
   70       -6.050201   1.000000
   71       -6.027589   1.000000
   72       -5.925606   1.000000
   73       -5.908139   1.000000
   74       -5.700740   1.000000
   75       -5.690165   1.000000
   76       -5.686131   1.000000
   77       -5.683569   1.000000
   78       -5.649371   1.000000
   79       -5.642618   1.000000
   80       -5.624826   1.000000
   81       -5.619693   1.000000
   82       -5.587995   1.000000
   83       -5.579194   1.000000
   84       -5.574159   1.000000
   85       -5.572695   1.000000
   86       -5.544936   1.000000
   87       -5.528058   1.000000
   88       -5.379277   1.000000
   89       -5.371030   1.000000
   90       -5.367618   1.000000
   91       -5.351457   1.000000
   92       -5.311069   1.000000
   93       -5.308636   1.000000
   94       -5.288603   1.000000
   95       -5.282212   1.000000
   96       -5.254200   1.000000
   97       -5.226925   1.000000
   98       -5.197666   1.000000
   99       -5.179279   1.000000
  100       -5.133207   1.000000
  101       -5.116436   1.000000
  102       -5.031527   1.000000
  103       -5.026275   1.000000
  104       -5.010425   1.000000
  105       -5.005734   1.000000
  106       -5.001689   1.000000
  107       -4.963845   1.000000
  108       -4.954970   1.000000
  109       -4.951890   1.000000
  110       -4.931020   1.000000
  111       -4.920228   1.000000
  112       -4.783640   1.000000
  113       -4.776802   1.000000