 vasp.5.4.4.18Apr17-6-g9f103f2a35 (build May 23 2022 10:35:18) complex          
  
 executed on           IFC18_impi date 2023.06.20  15:32:59
 running on   64 total cores
 distrk:  each k-point on   64 cores,    1 groups
 distr:  one band on NCORES_PER_BAND=  16 cores,    4 groups


--------------------------------------------------------------------------------------------------------


 INCAR:
 POTCAR:    PAW_PBE Pt 04Feb2005                  
 POTCAR:    PAW_PBE O 08Apr2002                   
 POTCAR:    PAW_PBE C 08Apr2002                   
 POTCAR:    PAW_PBE Pt 04Feb2005                  
   VRHFIN =Pt: s1d9                                                             
   LEXCH  = PE                                                                  
   EATOM  =   729.1176 eV,   53.5886 Ry                                         
                                                                                
   TITEL  = PAW_PBE Pt 04Feb2005                                                
   LULTRA =        F    use ultrasoft PP ?                                      
   IUNSCR =        1    unscreen: 0-lin 1-nonlin 2-no                           
   RPACOR =    2.330    partial core radius                                     
   POMASS =  195.080; ZVAL   =   10.000    mass and valenz                      
   RCORE  =    2.600    outmost cutoff radius                                   
   RWIGS  =    2.750; RWIGS  =    1.455    wigner-seitz radius (au A)           
   ENMAX  =  230.283; ENMIN  =  172.712 eV                                      
   ICORE  =        3    local potential                                         
   LCOR   =        T    correct aug charges                                     
   LPAW   =        T    paw PP                                                  
   EAUG   =  358.966                                                            
   DEXC   =    0.000                                                            
   RMAX   =    2.658    core radius for proj-oper                               
   RAUG   =    1.300    factor for augmentation sphere                          
   RDEP   =    2.761    radius for radial grids                                 
   RDEPT  =    2.203    core radius for aug-charge                              
                                                                                
   Atomic configuration                                                         
   16 entries                                                                   
     n  l   j            E        occ.                                          
     1  0  0.50    -78401.1885   2.0000                                         
     2  0  0.50    -13770.7750   2.0000                                         
     2  1  1.50    -11931.0468   6.0000                                         
     3  0  0.50     -3234.7234   2.0000                                         
     3  1  1.50     -2699.2216   6.0000                                         
     3  2  2.50     -2119.5714  10.0000                                         
     4  0  0.50      -695.1528   2.0000                                         
     4  1  1.50      -519.6034   6.0000                                         
     4  2  2.50      -306.6786  10.0000                                         
     4  3  3.50       -70.1041  14.0000                                         
     5  0  0.50      -101.7747   2.0000                                         
     5  1  1.50       -55.9873   6.0000                                         
     5  2  2.50        -6.1423   9.0000                                         
     6  0  0.50        -5.6573   1.0000                                         
     6  1  1.50        -6.8029   0.0000                                         
     5  3  2.50        -1.3606   0.0000                                         
   Description                                                                  
     l       E           TYP  RCUT    TYP  RCUT                                 
     2     -6.1423404     23  2.500                                             
     2     -7.5029230     23  2.500                                             
     0     -5.6573207     23  2.500                                             
     0      0.7416693     23  2.500                                             
     1     -2.7211652     23  2.600                                             
     1     20.4087390     23  2.600                                             
     3     -1.3605826     23  2.500                                             
  local pseudopotential read in
  partial core-charges read in
  partial kinetic energy density read in
  atomic valenz-charges read in
  non local Contribution for L=           2  read in
    real space projection operators read in
  non local Contribution for L=           2  read in
    real space projection operators read in
  non local Contribution for L=           0  read in
    real space projection operators read in
  non local Contribution for L=           0  read in
    real space projection operators read in
  non local Contribution for L=           1  read in
    real space projection operators read in
  non local Contribution for L=           1  read in
    real space projection operators read in
    PAW grid and wavefunctions read in
 
   number of l-projection  operators is LMAX  =           6
   number of lm-projection operators is LMMAX =          18
 
 POTCAR:    PAW_PBE O 08Apr2002                   
   VRHFIN =O: s2p4                                                              
   LEXCH  = PE                                                                  
   EATOM  =   432.3788 eV,   31.7789 Ry                                         
                                                                                
   TITEL  = PAW_PBE O 08Apr2002                                                 
   LULTRA =        F    use ultrasoft PP ?                                      
   IUNSCR =        1    unscreen: 0-lin 1-nonlin 2-no                           
   RPACOR =    1.200    partial core radius                                     
   POMASS =   16.000; ZVAL   =    6.000    mass and valenz                      
   RCORE  =    1.520    outmost cutoff radius                                   
   RWIGS  =    1.550; RWIGS  =    0.820    wigner-seitz radius (au A)           
   ENMAX  =  400.000; ENMIN  =  300.000 eV                                      
   ICORE  =        2    local potential                                         
   LCOR   =        T    correct aug charges                                     
   LPAW   =        T    paw PP                                                  
   EAUG   =  605.392                                                            
   DEXC   =    0.000                                                            
   RMAX   =    1.553    core radius for proj-oper                               
   RAUG   =    1.300    factor for augmentation sphere                          
   RDEP   =    1.550    radius for radial grids                                 
   RDEPT  =    1.329    core radius for aug-charge                              
                                                                                
   Atomic configuration                                                         
    4 entries                                                                   
     n  l   j            E        occ.                                          
     1  0  0.50      -514.6923   2.0000                                         
     2  0  0.50       -23.9615   2.0000                                         
     2  1  0.50        -9.0305   4.0000                                         
     3  2  1.50        -9.5241   0.0000                                         
   Description                                                                  
     l       E           TYP  RCUT    TYP  RCUT                                 
     0    -23.9615318     23  1.200                                             
     0     -9.5240782     23  1.200                                             
     1     -9.0304911     23  1.520                                             
     1      8.1634956     23  1.520                                             
     2     -9.5240782      7  1.500                                             
  local pseudopotential read in
  partial core-charges read in
  partial kinetic energy density read in
  kinetic energy density of atom read in
  atomic valenz-charges read in
  non local Contribution for L=           0  read in
    real space projection operators read in
  non local Contribution for L=           0  read in
    real space projection operators read in
  non local Contribution for L=           1  read in
    real space projection operators read in
  non local Contribution for L=           1  read in
    real space projection operators read in
    PAW grid and wavefunctions read in
 
   number of l-projection  operators is LMAX  =           4
   number of lm-projection operators is LMMAX =           8
 
 POTCAR:    PAW_PBE C 08Apr2002                   
   VRHFIN =C: s2p2                                                              
   LEXCH  = PE                                                                  
   EATOM  =   147.1560 eV,   10.8157 Ry                                         
                                                                                
   TITEL  = PAW_PBE C 08Apr2002                                                 
   LULTRA =        F    use ultrasoft PP ?                                      
   IUNSCR =        1    unscreen: 0-lin 1-nonlin 2-no                           
   RPACOR =    1.200    partial core radius                                     
   POMASS =   12.011; ZVAL   =    4.000    mass and valenz                      
   RCORE  =    1.500    outmost cutoff radius                                   
   RWIGS  =    1.630; RWIGS  =    0.863    wigner-seitz radius (au A)           
   ENMAX  =  400.000; ENMIN  =  300.000 eV                                      
   ICORE  =        2    local potential                                         
   LCOR   =        T    correct aug charges                                     
   LPAW   =        T    paw PP                                                  
   EAUG   =  644.873                                                            
   DEXC   =    0.000                                                            
   RMAX   =    1.529    core radius for proj-oper                               
   RAUG   =    1.300    factor for augmentation sphere                          
   RDEP   =    1.501    radius for radial grids                                 
   RDEPT  =    1.300    core radius for aug-charge                              
                                                                                
   Atomic configuration                                                         
    4 entries                                                                   
     n  l   j            E        occ.                                          
     1  0  0.50      -273.3789   2.0000                                         
     2  0  0.50       -13.7508   2.0000                                         
     2  1  0.50        -5.2854   2.0000                                         
     3  2  1.50        -5.4423   0.0000                                         
   Description                                                                  
     l       E           TYP  RCUT    TYP  RCUT                                 
     0    -13.7508458     23  1.200                                             
     0     -8.2022199     23  1.200                                             
     1     -5.2854383     23  1.500                                             
     1     34.0145650     23  1.500                                             
     2     -5.4423304      7  1.500                                             
  local pseudopotential read in
  partial core-charges read in
  partial kinetic energy density read in
  atomic valenz-charges read in
  non local Contribution for L=           0  read in
    real space projection operators read in
  non local Contribution for L=           0  read in
    real space projection operators read in
  non local Contribution for L=           1  read in
    real space projection operators read in
  non local Contribution for L=           1  read in
    real space projection operators read in
    PAW grid and wavefunctions read in
 
   number of l-projection  operators is LMAX  =           4
   number of lm-projection operators is LMMAX =           8
 
 Optimization of the real space projectors (new method)

 maximal supplied QI-value         = 14.36
 optimisation between [QCUT,QGAM] = [ 10.20, 20.39] = [ 29.12,116.47] Ry 
 Optimized for a Real-space Cutoff    1.42 Angstroem

   l    n(q)    QCUT    max X(q) W(low)/X(q) W(high)/X(q)  e(spline) 
   2      8    10.197    66.195    0.74E-03    0.54E-03    0.15E-06
   2      8    10.197    64.643    0.76E-03    0.55E-03    0.15E-06
   0      9    10.197    95.520    0.30E-03    0.12E-03    0.68E-07
   0      9    10.197    63.403    0.29E-03    0.12E-03    0.65E-07
   1      8    10.197    19.961    0.11E-02    0.12E-02    0.15E-06
   1      8    10.197    13.289    0.93E-03    0.10E-02    0.13E-06
 Optimization of the real space projectors (new method)

 maximal supplied QI-value         = 24.76
 optimisation between [QCUT,QGAM] = [ 10.15, 20.30] = [ 28.85,115.39] Ry 
 Optimized for a Real-space Cutoff    1.19 Angstroem

   l    n(q)    QCUT    max X(q) W(low)/X(q) W(high)/X(q)  e(spline) 
   0      7    10.150    20.381    0.86E-03    0.53E-03    0.15E-06
   0      7    10.150    15.268    0.92E-03    0.58E-03    0.15E-06
   1      7    10.150     5.964    0.13E-02    0.15E-02    0.11E-06
   1      7    10.150     5.382    0.10E-02    0.13E-02    0.10E-06
 Optimization of the real space projectors (new method)

 maximal supplied QI-value         = 25.13
 optimisation between [QCUT,QGAM] = [ 10.05, 20.36] = [ 28.30,116.06] Ry 
 Optimized for a Real-space Cutoff    1.12 Angstroem

   l    n(q)    QCUT    max X(q) W(low)/X(q) W(high)/X(q)  e(spline) 
   0      7    10.053   115.676    0.98E-03    0.17E-02    0.83E-07
   0      7    10.053    87.132    0.97E-03    0.17E-02    0.82E-07
   1      6    10.053     4.429    0.15E-02    0.82E-03    0.11E-06
   1      6    10.053     2.733    0.11E-02    0.55E-03    0.12E-06
  PAW_PBE Pt 04Feb2005                  :
 energy of atom  1       EATOM= -729.1176
 kinetic energy error for atom=    0.0056 (will be added to EATOM!!)
  PAW_PBE O 08Apr2002                   :
 energy of atom  2       EATOM= -432.3788
 kinetic energy error for atom=    0.1156 (will be added to EATOM!!)
  PAW_PBE C 08Apr2002                   :
 energy of atom  3       EATOM= -147.1560
 kinetic energy error for atom=    0.0288 (will be added to EATOM!!)
 
 
 POSCAR: Pt  O  C                                
  positions in cartesian coordinates
  No initial velocities read in
 exchange correlation table for  LEXCH =        8
   RHO(1)=    0.500       N(1)  =     2000
   RHO(2)=  100.500       N(2)  =     4000

 VTST: version 3.2, (02/03/18)

 CHAIN: initializing optimizer
 
 OPT: Using VASP Dynamics algorithm
 CHAIN: Read ICHAIN            0
 
 POSCAR: Pt  O  C                                
  positions in cartesian coordinates
  No initial velocities read in
 


--------------------------------------------------------------------------------------------------------


 ion  position               nearest neighbor table
   1  0.083  0.333  0.391-   7 2.80  38 2.80   8 2.80   2 2.80   3 2.80  18 2.80  35 2.80   4 2.80
                            52 2.80
   2  0.083  0.083  0.391-  24 2.80  37 2.80   7 2.80  17 2.80  19 2.80   4 2.80  35 2.80  36 2.80
                             1 2.80
   3  0.333  0.333  0.391-   5 2.80   8 2.80   6 2.80   4 2.80   1 2.80  18 2.80  34 2.80  20 2.80
                            33 2.80
   4  0.333  0.083  0.391-   7 2.80  22 2.80   5 2.80  19 2.80  49 2.80   3 2.80   1 2.80  34 2.80
                             2 2.80
   5  0.417  0.167  0.464-  11 2.77  10 2.77   3 2.80  34 2.80   4 2.80   6 2.80   7 2.80  22 2.80
                             8 2.80  39 2.80  56 2.80  12 2.85
   6  0.417  0.417  0.464-  25 2.79  20 2.80  33 2.80   3 2.80  21 2.80  23 2.80   8 2.80   5 2.80
                            39 2.80  40 2.80  27 2.82  12 2.82
   7  0.167  0.167  0.464-  10 2.78   9 2.78  44 2.78   4 2.80   1 2.80   2 2.80   8 2.80  22 2.80
                            24 2.80  37 2.80   5 2.80  38 2.80
   8  0.167  0.417  0.464-  10 2.77  59 2.79  25 2.79   3 2.80  18 2.80   1 2.80   6 2.80  23 2.80
                             7 2.80   5 2.80  53 2.80  38 2.80
   9  0.250  0.001  0.536-   7 2.78  24 2.79  22 2.79  10 2.80  26 2.80  28 2.81  31 2.81  44 2.81
                            11 2.81  43 2.81  16 2.82  14 2.82
  10  0.250  0.250  0.535-   5 2.77   8 2.77   7 2.78  15 2.79  11 2.79   9 2.80  25 2.80  59 2.81
                            44 2.82  12 2.82  16 2.82  13 2.83
  11  0.500  0.001  0.535-   5 2.77  56 2.78  22 2.78  46 2.79  10 2.79  41 2.80   9 2.81  58 2.81
                            28 2.81  61 2.82  12 2.82  16 2.83
  12  0.501  0.252  0.538-  42 2.75  27 2.77  46 2.79  25 2.80  15 2.80  41 2.81  10 2.82   6 2.82
                            11 2.82  39 2.83   5 2.85  45 2.90
  13  0.083  0.334  0.609-  15 2.74  47 2.75  14 2.80  16 2.80  64 2.81  30 2.81  59 2.81  44 2.83
                            10 2.83
  14  0.083  0.085  0.609-  47 2.78  48 2.79  13 2.80  31 2.80  29 2.80  16 2.80   9 2.82  44 2.82
                            43 2.82
  15  0.327  0.335  0.609-  13 2.74  16 2.78  30 2.78  10 2.79  12 2.80  25 2.80  46 2.86  32 2.86
                            45 2.87
  16  0.332  0.084  0.609-  15 2.78  46 2.78  31 2.79  61 2.80  14 2.80  13 2.80   9 2.82  10 2.82
                            11 2.83
  17  0.083  0.833  0.391-  54 2.80  23 2.80  24 2.80   2 2.80  36 2.80  51 2.80  19 2.80  20 2.80
                            18 2.80
  18  0.083  0.583  0.391-   8 2.80  53 2.80  23 2.80   3 2.80  52 2.80   1 2.80  51 2.80  17 2.80
                            20 2.80
  19  0.333  0.833  0.391-  24 2.80  21 2.80  22 2.80   4 2.80   2 2.80  17 2.80  49 2.80  20 2.80
                            50 2.80
  20  0.333  0.583  0.391-   6 2.80  23 2.80  21 2.80  33 2.80  50 2.80  19 2.80   3 2.80  18 2.80
                            17 2.80
  21  0.417  0.667  0.464-  28 2.77  26 2.78  19 2.80  50 2.80  20 2.80  55 2.80   6 2.80  22 2.80
                            40 2.80  23 2.80  24 2.80  27 2.83
  22  0.417  0.917  0.464-  28 2.77  11 2.78   9 2.79   4 2.80  49 2.80  19 2.80  55 2.80  24 2.80
                             7 2.80   5 2.80  21 2.80  56 2.80
  23  0.167  0.667  0.464-  26 2.78  25 2.78  60 2.79  20 2.80  17 2.80  18 2.80  24 2.80   8 2.80
                             6 2.80  54 2.80  21 2.80  53 2.80
  24  0.167  0.917  0.464-  26 2.77   9 2.79  43 2.79   2 2.80  19 2.80  17 2.80  22 2.80  23 2.80
                             7 2.80  37 2.80  21 2.80  54 2.80
  25  0.250  0.500  0.536-  23 2.78   8 2.79   6 2.79  12 2.80  59 2.80  27 2.80  10 2.80  32 2.80
                            60 2.80  15 2.80  26 2.81  30 2.83
  26  0.250  0.750  0.535-  24 2.77  21 2.78  23 2.78  32 2.78  28 2.80   9 2.80  60 2.80  25 2.81
                            27 2.81  43 2.82  31 2.83  29 2.83
  27  0.500  0.499  0.537-  42 2.76  12 2.77  25 2.80  32 2.80  62 2.80  57 2.80  28 2.81  26 2.81
                             6 2.82  40 2.82  21 2.83  45 2.91
  28  0.500  0.750  0.535-  21 2.77  22 2.77  55 2.78  62 2.78  26 2.80  57 2.80  58 2.81   9 2.81
                            11 2.81  27 2.81  61 2.83  31 2.83
  29  0.082  0.835  0.609-  32 2.74  48 2.75  14 2.80  31 2.80  63 2.81  30 2.81  43 2.82  60 2.82
                            26 2.83
  30  0.081  0.585  0.609-  32 2.78  64 2.78  15 2.78  63 2.79  60 2.81  29 2.81  13 2.81  59 2.81
                            25 2.83
  31  0.332  0.835  0.609-  32 2.78  62 2.78  16 2.79  14 2.80  61 2.80  29 2.80   9 2.81  26 2.83
                            28 2.83
  32  0.327  0.590  0.608-  29 2.74  31 2.78  26 2.78  30 2.78  25 2.80  27 2.80  15 2.86  62 2.87
                            45 2.87
  33  0.583  0.333  0.391-  39 2.80   6 2.80  40 2.80  35 2.80  36 2.80  20 2.80  50 2.80  34 2.80
                             3 2.80
  34  0.583  0.083  0.391-   5 2.80  56 2.80  39 2.80  49 2.80  51 2.80   3 2.80  36 2.80   4 2.80
                            33 2.80
  35  0.833  0.333  0.391-  37 2.80  40 2.80  38 2.80  33 2.80  50 2.80   1 2.80  36 2.80   2 2.80
                            52 2.80
  36  0.833  0.083  0.391-  39 2.80  54 2.80  37 2.80  51 2.80  17 2.80  33 2.80  34 2.80  35 2.80
                             2 2.80
  37  0.917  0.167  0.464-  43 2.77  44 2.77   2 2.80  35 2.80  36 2.80  38 2.80  39 2.80  40 2.80
                            24 2.80   7 2.80  54 2.80  42 2.87
  38  0.917  0.417  0.464-  44 2.77  59 2.78  57 2.79  52 2.80   1 2.80  35 2.80  40 2.80  37 2.80
                            53 2.80  55 2.80   7 2.80   8 2.80
  39  0.667  0.167  0.464-  41 2.78  36 2.80  33 2.80  34 2.80   5 2.80  37 2.80  40 2.80   6 2.80
                            54 2.80  56 2.80  12 2.83  42 2.84
  40  0.667  0.417  0.464-  57 2.79  50 2.80  35 2.80  33 2.80  38 2.80  55 2.80  39 2.80  21 2.80
                            37 2.80   6 2.80  27 2.82  42 2.83
  41  0.750  0.001  0.536-  39 2.78  56 2.79  54 2.79  43 2.80  11 2.80  60 2.80  58 2.81  42 2.81
                            12 2.81  46 2.81  63 2.82  48 2.82
  42  0.746  0.253  0.538-  12 2.75  27 2.76  48 2.79  47 2.80  57 2.80  41 2.81  43 2.83  44 2.83
                            40 2.83  39 2.84  37 2.87  45 2.89
  43  0.999  0.002  0.535-  37 2.77  54 2.78  24 2.79  44 2.79  41 2.80  48 2.80   9 2.81  60 2.81
                            26 2.82  29 2.82  14 2.82  42 2.83
  44  0.999  0.250  0.535-  37 2.77  38 2.77   7 2.78  43 2.79  47 2.80  57 2.80  59 2.81   9 2.81
                            10 2.82  14 2.82  13 2.83  42 2.83
  45  0.582  0.335  0.615-  66 1.84  48 2.86  47 2.86  62 2.86  46 2.86  32 2.87  15 2.87  42 2.89
                            12 2.90  27 2.91
  46  0.582  0.080  0.609-  61 2.75  16 2.78  63 2.78  12 2.79  11 2.79  41 2.81  48 2.85  15 2.86
                            45 2.86
  47  0.837  0.335  0.609-  13 2.75  14 2.78  64 2.79  42 2.80  44 2.80  57 2.81  62 2.86  48 2.86
                            45 2.86
  48  0.836  0.080  0.609-  29 2.75  63 2.78  14 2.79  42 2.79  43 2.80  41 2.82  46 2.85  47 2.86
                            45 2.86
  49  0.583  0.833  0.391-  22 2.80  55 2.80  56 2.80  34 2.80   4 2.80  19 2.80  51 2.80  50 2.80
                            52 2.80
  50  0.583  0.583  0.391-  40 2.80  21 2.80  55 2.80  52 2.80  35 2.80  20 2.80  33 2.80  49 2.80
                            19 2.80
  51  0.833  0.833  0.391-  56 2.80  53 2.80  54 2.80  36 2.80  34 2.80  49 2.80  17 2.80  18 2.80
                            52 2.80
  52  0.833  0.583  0.391-  38 2.80  55 2.80  53 2.80  50 2.80  18 2.80  35 2.80   1 2.80  49 2.80
                            51 2.80
  53  0.917  0.667  0.464-  59 2.78  60 2.79  58 2.79  51 2.80  18 2.80  52 2.80  56 2.80  38 2.80
                            55 2.80   8 2.80  54 2.80  23 2.80
  54  0.917  0.917  0.464-  43 2.78  60 2.78  41 2.79  36 2.80  17 2.80  51 2.80  24 2.80  23 2.80
                            37 2.80  56 2.80  39 2.80  53 2.80
  55  0.667  0.667  0.464-  28 2.78  58 2.79  57 2.79  49 2.80  52 2.80  50 2.80  21 2.80  40 2.80
                            22 2.80  38 2.80  53 2.80  56 2.80
  56  0.667  0.917  0.464-  11 2.78  58 2.78  41 2.79  51 2.80  34 2.80  49 2.80  53 2.80  39 2.80
                            22 2.80  54 2.80   5 2.80  55 2.80
  57  0.750  0.500  0.536-  55 2.79  40 2.79  38 2.79  44 2.80  42 2.80  28 2.80  58 2.80  27 2.80
                            59 2.81  62 2.81  47 2.81  64 2.82
  58  0.750  0.750  0.536-  56 2.78  55 2.79  53 2.79  57 2.80  28 2.81  41 2.81  60 2.81  11 2.81
                            59 2.81  64 2.81  63 2.82  61 2.82
  59  1.000  0.500  0.536-  38 2.78  53 2.78   8 2.79  25 2.80  57 2.81  10 2.81  44 2.81  58 2.81
                            60 2.81  13 2.81  30 2.81  64 2.82
  60  1.000  0.751  0.536-  54 2.78  53 2.79  23 2.79  41 2.80  25 2.80  26 2.80  58 2.81  30 2.81
                            59 2.81  43 2.81  29 2.82  63 2.82
  61  0.582  0.835  0.609-  62 2.75  46 2.75  16 2.80  31 2.80  63 2.81  64 2.81  11 2.82  58 2.82
                            28 2.83
  62  0.583  0.590  0.609-  61 2.75  31 2.78  64 2.78  28 2.78  27 2.80  57 2.81  47 2.86  45 2.86
                            32 2.87
  63  0.833  0.834  0.609-  48 2.78  46 2.78  30 2.79  64 2.79  29 2.81  61 2.81  41 2.82  58 2.82
                            60 2.82
  64  0.833  0.585  0.609-  62 2.78  30 2.78  47 2.79  63 2.79  61 2.81  58 2.81  13 2.81  59 2.82
                            57 2.82
  65  0.542  0.377  0.709-  66 1.16
  66  0.558  0.360  0.673-  65 1.16  45 1.84
 

IMPORTANT INFORMATION: All symmetrisations will be switched off!
NOSYMM: (Re-)initialisation of all symmetry stuff for point group C_1.

 
 
 KPOINTS: kpoints                                 

Automatic generation of k-mesh.
Space group operators:
 irot       det(A)        alpha          n_x          n_y          n_z        tau_x        tau_y        tau_z
    1     1.000000     0.000000     1.000000     0.000000     0.000000     0.000000     0.000000     0.000000
 
 Subroutine IBZKPT returns following result:
 ===========================================
 
 Found     10 irreducible k-points:
 
 Following reciprocal coordinates:
            Coordinates               Weight
  0.000000  0.000000  0.000000      1.000000
  0.250000  0.000000  0.000000      2.000000
  0.500000  0.000000  0.000000      1.000000
  0.000000  0.250000  0.000000      2.000000
  0.250000  0.250000  0.000000      2.000000
  0.500000  0.250000  0.000000      2.000000
 -0.250000  0.250000  0.000000      2.000000
  0.000000  0.500000  0.000000      1.000000
  0.250000  0.500000  0.000000      2.000000
  0.500000  0.500000  0.000000      1.000000
 
 Following cartesian coordinates:
            Coordinates               Weight
  0.000000  0.000000  0.000000      1.000000
  0.022293 -0.012871  0.000000      2.000000
  0.044586 -0.025741  0.000000      1.000000
  0.000000  0.025741  0.000000      2.000000
  0.022293  0.012871  0.000000      2.000000
  0.044586  0.000000  0.000000      2.000000
 -0.022293  0.038612  0.000000      2.000000
  0.000000  0.051483  0.000000      1.000000
  0.022293  0.038612  0.000000      2.000000
  0.044586  0.025741  0.000000      1.000000
 
 
 Subroutine IBZKPT_HF returns following result:
 ==============================================
 
 Found     16 k-points in 1st BZ
 the following     16 k-points will be used (e.g. in the exchange kernel)
 Following reciprocal coordinates:   # in IRBZ
  0.000000  0.000000  0.000000    0.06250000   1 t-inv F
  0.250000  0.000000  0.000000    0.06250000   2 t-inv F
  0.500000  0.000000  0.000000    0.06250000   3 t-inv F
  0.000000  0.250000  0.000000    0.06250000   4 t-inv F
  0.250000  0.250000  0.000000    0.06250000   5 t-inv F
  0.500000  0.250000  0.000000    0.06250000   6 t-inv F
 -0.250000  0.250000  0.000000    0.06250000   7 t-inv F
  0.000000  0.500000  0.000000    0.06250000   8 t-inv F
  0.250000  0.500000  0.000000    0.06250000   9 t-inv F
  0.500000  0.500000  0.000000    0.06250000  10 t-inv F
 -0.250000 -0.000000  0.000000    0.06250000   2 t-inv T
  0.000000 -0.250000  0.000000    0.06250000   4 t-inv T
 -0.250000 -0.250000  0.000000    0.06250000   5 t-inv T
 -0.500000 -0.250000  0.000000    0.06250000   6 t-inv T
  0.250000 -0.250000  0.000000    0.06250000   7 t-inv T
 -0.250000 -0.500000  0.000000    0.06250000   9 t-inv T


--------------------------------------------------------------------------------------------------------




 Dimension of arrays:
   k-points           NKPTS =     10   k-points in BZ     NKDIM =     10   number of bands    NBANDS=    392
   number of dos      NEDOS =    301   number of ions     NIONS =     66
   non local maximal  LDIM  =      6   non local SUM 2l+1 LMDIM =     18
   total plane-waves  NPLWV = 501760
   max r-space proj   IRMAX =   1814   max aug-charges    IRDMAX=   5699
   dimension x,y,z NGX =    56 NGY =   56 NGZ =  160
   dimension x,y,z NGXF=    96 NGYF=   96 NGZF=  270
   support grid    NGXF=    96 NGYF=   96 NGZF=  270
   ions per type =              64   1   1
   NGX,Y,Z   is equivalent  to a cutoff of   8.30,  8.30,  8.46 a.u.
   NGXF,Y,Z  is equivalent  to a cutoff of  14.23, 14.23, 14.27 a.u.

 SYSTEM =  Pt                                      
 POSCAR =  Pt  O  C                                

 Startparameter for this run:
   NWRITE =      2    write-flag & timer
   PREC   = med       normal or accurate (medium, high low for compatibility)
   ISTART =      0    job   : 0-new  1-cont  2-samecut
   ICHARG =      2    charge: 1-file 2-atom 10-const
   ISPIN  =      1    spin polarized calculation?
   LNONCOLLINEAR =      F non collinear calculations
   LSORBIT =      F    spin-orbit coupling
   INIWAV =      1    electr: 0-lowe 1-rand  2-diag
   LASPH  =      F    aspherical Exc in radial PAW
   METAGGA=      F    non-selfconsistent MetaGGA calc.

 Electronic Relaxation 1
   ENCUT  =  400.0 eV  29.40 Ry    5.42 a.u.  18.29 18.29 51.28*2*pi/ulx,y,z
   ENINI  =  400.0     initial cutoff
   ENAUG  =  644.9 eV  augmentation charge cutoff
   NELM   =    100;   NELMIN=  2; NELMDL= -5     # of ELM steps 
   EDIFF  = 0.1E-04   stopping-criterion for ELM
   LREAL  =      T    real-space projection
   NLSPLINE    = F    spline interpolate recip. space projectors
   LCOMPAT=      F    compatible to vasp.4.4
   GGA_COMPAT  = T    GGA compatible to vasp.4.4-vasp.4.6
   LMAXPAW     = -100 max onsite density
   LMAXMIX     =    2 max onsite mixed and CHGCAR
   VOSKOWN=      0    Vosko Wilk Nusair interpolation
   ROPT   =   -0.00200  -0.00200  -0.00200
 Ionic relaxation
   EDIFFG = 0.1E-03   stopping-criterion for IOM
   NSW    =    829    number of steps for IOM
   NBLOCK =      1;   KBLOCK =    829    inner block; outer block 
   IBRION =      5    ionic relax: 0-MD 1-quasi-New 2-CG
   NFREE  =      2    steps in history (QN), initial steepest desc. (CG)
   ISIF   =      1    stress and relaxation
   IWAVPR =     11    prediction:  0-non 1-charg 2-wave 3-comb
   ISYM   =      0    0-nonsym 1-usesym 2-fastsym
   LCORR  =      T    Harris-Foulkes like correction to forces

   POTIM  = 0.0150    time-step for ionic-motion
   TEIN   =    0.0    initial temperature
   TEBEG  =    0.0;   TEEND  =   0.0 temperature during run
   SMASS  =  -3.00    Nose mass-parameter (am)
   estimated Nose-frequenzy (Omega)   =  0.10E-29 period in steps =****** mass=  -0.287E-26a.u.
   SCALEE = 1.0000    scale energy and forces
   NPACO  =    256;   APACO  = 16.0  distance and # of slots for P.C.
   PSTRESS=    0.0 pullay stress

  Mass of Ions in am
   POMASS = 195.08 16.00 12.01
  Ionic Valenz
   ZVAL   =  10.00  6.00  4.00
  Atomic Wigner-Seitz radii
   RWIGS  =  -1.00 -1.00 -1.00
  virtual crystal weights 
   VCA    =   1.00  1.00  1.00
   NELECT =     650.0000    total number of electrons
   NUPDOWN=      -1.0000    fix difference up-down

 DOS related values:
   EMIN   =  10.00;   EMAX   =-10.00  energy-range for DOS
   EFERMI =   0.00
   ISMEAR =     1;   SIGMA  =   0.10  broadening in eV -4-tet -1-fermi 0-gaus

 Electronic relaxation 2 (details)
   IALGO  =     68    algorithm
   LDIAG  =      T    sub-space diagonalisation (order eigenvalues)
   LSUBROT=      F    optimize rotation matrix (better conditioning)
   TURBO    =      0    0=normal 1=particle mesh
   IRESTART =      0    0=no restart 2=restart with 2 vectors
   NREBOOT  =      0    no. of reboots
   NMIN     =      0    reboot dimension
   EREF     =   0.00    reference energy to select bands
   IMIX   =      4    mixing-type and parameters
     AMIX     =   0.40;   BMIX     =  1.00
     AMIX_MAG =   1.60;   BMIX_MAG =  1.00
     AMIN     =   0.10
     WC   =   100.;   INIMIX=   1;  MIXPRE=   1;  MAXMIX= -45

 Intra band minimization:
   WEIMIN = 0.0010     energy-eigenvalue tresh-hold
   EBREAK =  0.64E-08  absolut break condition
   DEPER  =   0.30     relativ break condition  

   TIME   =   0.40     timestep for ELM

  volume/ion in A,a.u.               =      51.89       350.18
  Fermi-wavevector in a.u.,A,eV,Ry     =   0.940802  1.777859 12.042641  0.885109
  Thomas-Fermi vector in A             =   2.068250
 
 Write flags
   LWAVE        =      F    write WAVECAR
   LDOWNSAMPLE  =      F    k-point downsampling of WAVECAR
   LCHARG       =      F    write CHGCAR
   LVTOT        =      F    write LOCPOT, total local potential
   LVHAR        =      F    write LOCPOT, Hartree potential only
   LELF         =      F    write electronic localiz. function (ELF)
   LORBIT       =      0    0 simple, 1 ext, 2 COOP (PROOUT), +10 PAW based schemes


 Dipole corrections
   LMONO  =      F    monopole corrections only (constant potential shift)
   LDIPOL =      F    correct potential (dipole corrections)
   IDIPOL =      0    1-x, 2-y, 3-z, 4-all directions 
   EPSILON=  1.0000000 bulk dielectric constant

 Exchange correlation treatment:
   GGA     =    --    GGA type
   LEXCH   =     8    internal setting for exchange type
   VOSKOWN=      0    Vosko Wilk Nusair interpolation
   LHFCALC =     F    Hartree Fock is set to
   LHFONE  =     F    Hartree Fock one center treatment
   AEXX    =    0.0000 exact exchange contribution

 Linear response parameters
   LEPSILON=     F    determine dielectric tensor
   LRPA    =     F    only Hartree local field effects (RPA)
   LNABLA  =     F    use nabla operator in PAW spheres
   LVEL    =     F    velocity operator in full k-point grid
   LINTERFAST=   F  fast interpolation
   KINTER  =     0    interpolate to denser k-point grid
   CSHIFT  =0.1000    complex shift for real part using Kramers Kronig
   OMEGAMAX=  -1.0    maximum frequency
   DEG_THRESHOLD= 0.2000000E-02 threshold for treating states as degnerate
   RTIME   =   -0.100 relaxation time in fs
  (WPLASMAI=    0.000 imaginary part of plasma frequency in eV, 0.658/RTIME)
   DFIELD  = 0.0000000 0.0000000 0.0000000 field for delta impulse in time
 
 Orbital magnetization related:
   ORBITALMAG=     F  switch on orbital magnetization
   LCHIMAG   =     F  perturbation theory with respect to B field
   DQ        =  0.001000  dq finite difference perturbation B field
   LLRAUG    =     F  two centre corrections for induced B field



--------------------------------------------------------------------------------------------------------


 finite differences
   using selective dynamics as specified on POSCAR
   WARNING: If single coordinates had been selected the selection of coordinates
            is made according to the corresponding   d i r e c t   coordinates!
            Don't support selection of single cartesian coordinates -- sorry ...
  !
 charge density and potential will be updated during run
 non-spin polarized calculation
 RMM-DIIS sequential band-by-band and
  variant of blocked Davidson during initial phase
 perform sub-space diagonalisation
    before iterative eigenvector-optimisation
 modified Broyden-mixing scheme, WC =      100.0
 initial mixing is a Kerker type mixing with AMIX =  0.4000 and BMIX =      1.0000
 Hartree-type preconditioning will be used
 using additional bands           67
 real space projection scheme for non local part
 use partial core corrections
 calculate Harris-corrections to forces 
   (improved forces if not selfconsistent)
 use gradient corrections 
 use of overlap-Matrix (Vanderbilt PP)
 Methfessel and Paxton  Order N= 1 SIGMA  =   0.10


--------------------------------------------------------------------------------------------------------


  energy-cutoff  :      400.00
  volume of cell :     3424.86
      direct lattice vectors                 reciprocal lattice vectors
    11.214400000  0.000000000  0.000000000     0.089171066 -0.051482939  0.000000000
     5.607200000  9.711955288  0.000000000     0.000000000  0.102965878  0.000000000
     0.000000000  0.000000000 31.445600000     0.000000000  0.000000000  0.031800951

  length of vectors
    11.214400000 11.214400000 31.445600000     0.102965878  0.102965878  0.031800951


 
 k-points in units of 2pi/SCALE and weight: kpoints                                 
   0.00000000  0.00000000  0.00000000       0.062
   0.02229277 -0.01287073  0.00000000       0.125
   0.04458553 -0.02574147  0.00000000       0.062
   0.00000000  0.02574147  0.00000000       0.125
   0.02229277  0.01287073  0.00000000       0.125
   0.04458553  0.00000000  0.00000000       0.125
  -0.02229277  0.03861220  0.00000000       0.125
   0.00000000  0.05148294  0.00000000       0.062
   0.02229277  0.03861220  0.00000000       0.125
   0.04458553  0.02574147  0.00000000       0.062
 
 k-points in reciprocal lattice and weights: kpoints                                 
   0.00000000  0.00000000  0.00000000       0.062
   0.25000000  0.00000000  0.00000000       0.125
   0.50000000  0.00000000  0.00000000       0.062
   0.00000000  0.25000000  0.00000000       0.125
   0.25000000  0.25000000  0.00000000       0.125
   0.50000000  0.25000000  0.00000000       0.125
  -0.25000000  0.25000000  0.00000000       0.125
   0.00000000  0.50000000  0.00000000       0.062
   0.25000000  0.50000000  0.00000000       0.125
   0.50000000  0.50000000  0.00000000       0.062
 
 position of ions in fractional coordinates (direct lattice) 
   0.08333000  0.33333000  0.39081000
   0.08333000  0.08333000  0.39081000
   0.33333000  0.33333000  0.39081000
   0.33333000  0.08333000  0.39081000
   0.41667000  0.16667000  0.46360000
   0.41667000  0.41667000  0.46360000
   0.16667000  0.16667000  0.46360000
   0.16667000  0.41667000  0.46360000
   0.24951926  0.00055800  0.53568836
   0.25027000  0.25008522  0.53529254
   0.49956672  0.00097941  0.53535813
   0.50056570  0.25220483  0.53764513
   0.08260975  0.33384429  0.60889287
   0.08260699  0.08451868  0.60893195
   0.32672308  0.33478154  0.60874483
   0.33224144  0.08424246  0.60900507
   0.08333000  0.83333000  0.39081000
   0.08333000  0.58333000  0.39081000
   0.33333000  0.83333000  0.39081000
   0.33333000  0.58333000  0.39081000
   0.41667000  0.66667000  0.46360000
   0.41667000  0.91667000  0.46360000
   0.16667000  0.66667000  0.46360000
   0.16667000  0.91667000  0.46360000
   0.24958714  0.50038431  0.53571004
   0.24980554  0.75046876  0.53524572
   0.50016327  0.49905522  0.53723481
   0.49955578  0.75018622  0.53528848
   0.08218648  0.83526936  0.60887576
   0.08092425  0.58532500  0.60893022
   0.33206301  0.83519811  0.60887279
   0.32651076  0.59018612  0.60847888
   0.58333000  0.33333000  0.39081000
   0.58333000  0.08333000  0.39081000
   0.83333000  0.33333000  0.39081000
   0.83333000  0.08333000  0.39081000
   0.91667000  0.16667000  0.46360000
   0.91667000  0.41667000  0.46360000
   0.66667000  0.16667000  0.46360000
   0.66667000  0.41667000  0.46360000
   0.74955488  0.00058008  0.53573887
   0.74565063  0.25257297  0.53808463
   0.99858285  0.00156174  0.53543602
   0.99880404  0.25035481  0.53534963
   0.58219796  0.33511270  0.61475720
   0.58235663  0.08014347  0.60874544
   0.83706587  0.33472168  0.60899167
   0.83621343  0.08030464  0.60906383
   0.58333000  0.83333000  0.39081000
   0.58333000  0.58333000  0.39081000
   0.83333000  0.83333000  0.39081000
   0.83333000  0.58333000  0.39081000
   0.91667000  0.66667000  0.46360000
   0.91667000  0.91667000  0.46360000
   0.66667000  0.66667000  0.46360000
   0.66667000  0.91667000  0.46360000
   0.74961313  0.50030510  0.53576719
   0.74955029  0.75044470  0.53567530
   0.99989307  0.50000806  0.53566813
   0.99964364  0.75056571  0.53563828
   0.58177558  0.83488876  0.60890566
   0.58256512  0.58969850  0.60862640
   0.83260115  0.83398279  0.60900740
   0.83285949  0.58515919  0.60895509
   0.54177485  0.37748923  0.70897841
   0.55833820  0.35952235  0.67262490
 
 position of ions in cartesian coordinates  (Angst):
   2.80354393  3.23728606 12.28925494
   1.40174393  0.80929723 12.28925494
   5.60714393  3.23728606 12.28925494
   4.20534393  0.80929723 12.28925494
   5.60725607  1.61869159 14.57818016
   7.00905607  4.04668041 14.57818016
   2.80365607  1.61869159 14.57818016
   4.20545607  4.04668041 14.57818016
   2.80133763  0.00541924 16.84504189
   4.20890570  2.42881650 16.83259503
   5.60783275  0.00951201 16.83465757
   7.02770694  2.44940207 16.90657358
   2.79835050  3.24228085 19.14700162
   1.40030098  0.82084169 19.14823055
   5.54119041  3.25138335 19.14234651
   4.19825268  0.81815898 19.15052987
   5.60714393  8.09326370 12.28925494
   4.20534393  5.66527488 12.28925494
   8.41074393  8.09326370 12.28925494
   7.00894393  5.66527488 12.28925494
   8.41085607  6.47466923 14.57818016
   9.81265607  8.90265805 14.57818016
   5.60725607  6.47466923 14.57818016
   7.00905607  8.90265805 14.57818016
   5.60472490  4.85971003 16.84572369
   7.00944767  7.28851901 16.83112269
   8.40733341  4.84680196 16.89367085
   9.80866252  7.28577502 16.83246737
   5.60519447  8.11209869 19.14646369
   4.18955122  5.68465026 19.14817622
   8.40701026  8.11140671 19.14637015
   6.97091393  5.73186123 19.13398356
   8.41074393  3.23728606 12.28925494
   7.00894393  0.80929723 12.28925494
  11.21434393  3.23728606 12.28925494
   9.81254393  0.80929723 12.28925494
  11.21445607  1.61869159 14.57818016
  12.61625607  4.04668041 14.57818016
   8.41085607  1.61869159 14.57818016
   9.81265607  4.04668041 14.57818016
   8.40906084  0.00563374 16.84663031
   9.77825154  2.45297735 16.92039406
  11.20726446  0.01516751 16.83710698
  12.60477752  2.43143474 16.83439028
   8.40804468  3.25459955 19.33140912
   6.98016071  0.77834983 19.14236550
  11.26404284  3.25080195 19.15010856
   9.82791603  0.77991507 19.15237766
  11.21434393  8.09326370 12.28925494
   9.81254393  5.66527488 12.28925494
  14.01794393  8.09326370 12.28925494
  12.61614393  5.66527488 12.28925494
  14.01805607  6.47466923 14.57818016
  15.41985607  8.90265805 14.57818016
  11.21445607  6.47466923 14.57818016
  12.61625607  8.90265805 14.57818016
  11.21177217  4.85894073 16.84752073
  12.61365031  7.28828541 16.84463135
  14.01684600  4.85605595 16.84440568
  15.41897574  7.28946062 16.84346708
  11.20565233  8.10840229 19.14740387
   9.83967564  5.72712542 19.13862229
  14.01343067  8.09960358 19.15060313
  12.62112408  5.68303988 19.14895832
   8.19233743  3.66615849 22.29425151
   8.27734162  3.49166495 21.15109343
 


--------------------------------------------------------------------------------------------------------


 k-point  1 :   0.0000 0.0000 0.0000  plane waves:   62299
 k-point  2 :   0.2500 0.0000 0.0000  plane waves:   62176
 k-point  3 :   0.5000 0.0000 0.0000  plane waves:   62174
 k-point  4 :   0.0000 0.2500 0.0000  plane waves:   62176
 k-point  5 :   0.2500 0.2500 0.0000  plane waves:   62176
 k-point  6 :   0.5000 0.2500 0.0000  plane waves:   62212
 k-point  7 :  -0.2500 0.2500 0.0000  plane waves:   62212
 k-point  8 :   0.0000 0.5000 0.0000  plane waves:   62174
 k-point  9 :   0.2500 0.5000 0.0000  plane waves:   62212
 k-point 10 :   0.5000 0.5000 0.0000  plane waves:   62174

 maximum and minimum number of plane-waves per node :      3961     3830

 maximum number of plane-waves:     62299
 maximum index in each direction: 
   IXMAX=   18   IYMAX=   18   IZMAX=   51
   IXMIN=  -18   IYMIN=  -18   IZMIN=  -51


 real space projection operators:
  total allocation   :      15480.69 KBytes
  max/ min on nodes  :       1162.08        772.72


 parallel 3D FFT for wavefunctions:
    minimum data exchange during FFTs selected (reduces bandwidth)
 parallel 3D FFT for charge:
    minimum data exchange during FFTs selected (reduces bandwidth)


 total amount of memory used by VASP MPI-rank0   103429. kBytes
=======================================================================

   base      :      30000. kBytes
   nonlr-proj:       3412. kBytes
   fftplans  :       2761. kBytes
   grid      :       4773. kBytes
   one-center:         77. kBytes
   wavefun   :      62406. kBytes
 
     INWAV:  cpu time    0.0000: real time    0.0002
 Broyden mixing: mesh for mixing (old mesh)
   NGX = 37   NGY = 37   NGZ =103
  (NGX  = 96   NGY  = 96   NGZ  =270)
  gives a total of 141007 points

 initial charge density was supplied:
 charge density of overlapping atoms calculated
 number of electron     650.0000000 magnetization 
 keeping initial charge density in first step


--------------------------------------------------------------------------------------------------------


 Maximum index for non-local projection operator          239
 Maximum index for augmentation-charges          337 (set IRDMAX)


--------------------------------------------------------------------------------------------------------


 First call to EWALD:  gamma=   0.118
 Maximum number of real-space cells 4x 4x 2
 Maximum number of reciprocal cells 2x 2x 5

    FEWALD:  cpu time    0.0020: real time    0.0020


--------------------------------------- Iteration      1(   1)  ---------------------------------------


    POTLOK:  cpu time    0.0253: real time    0.0345
    SETDIJ:  cpu time    0.0045: real time    0.0076
     EDDAV:  cpu time   10.9885: real time   11.0206
       DOS:  cpu time    0.0030: real time    0.0030
    --------------------------------------------
      LOOP:  cpu time   11.0213: real time   11.0657

 eigenvalue-minimisations  :  7912
 total energy-change (2. order) : 0.4252347E+04  (-0.2375775E+05)
 number of electron     650.0000000 magnetization 
 augmentation part      650.0000000 magnetization 

 Free energy of the ion-electron system (eV)
  ---------------------------------------------------
  alpha Z        PSCENC =      1162.91707422
  Ewald energy   TEWEN  =    409517.05967866
  -Hartree energ DENC   =   -458116.42656896
  -exchange      EXHF   =         0.00000000
  -V(xc)+E(xc)   XCENC  =       255.92295635
  PAW double counting   =     45006.97779067   -43199.21847856
  entropy T*S    EENTRO =        -0.00526169
  eigenvalues    EBANDS =      2382.56461745
  atomic energy  EATOM  =     47242.55533565
  Solvation  Ediel_sol  =         0.00000000
  ---------------------------------------------------
  free energy    TOTEN  =      4252.34714379 eV

  energy without entropy =     4252.35240548  energy(sigma->0) =     4252.34889769


--------------------------------------------------------------------------------------------------------




--------------------------------------- Iteration      1(   2)  ---------------------------------------


     EDDAV:  cpu time   13.0485: real time   13.0874
       DOS:  cpu time    0.0027: real time    0.0027
    --------------------------------------------
      LOOP:  cpu time   13.0512: real time   13.0901

 eigenvalue-minimisations  :  9848
 total energy-change (2. order) :-0.4278875E+04  (-0.3935790E+04)
 number of electron     650.0000000 magnetization 
 augmentation part      650.0000000 magnetization 

 Free energy of the ion-electron system (eV)
  ---------------------------------------------------
  alpha Z        PSCENC =      1162.91707422
  Ewald energy   TEWEN  =    409517.05967866
  -Hartree energ DENC   =   -458116.42656896
  -exchange      EXHF   =         0.00000000
  -V(xc)+E(xc)   XCENC  =       255.92295635
  PAW double counting   =     45006.97779067   -43199.21847856
  entropy T*S    EENTRO =        -0.00823087
  eigenvalues    EBANDS =     -1896.30727531
  atomic energy  EATOM  =     47242.55533565
  Solvation  Ediel_sol  =         0.00000000
  ---------------------------------------------------
  free energy    TOTEN  =       -26.52771814 eV

  energy without entropy =      -26.51948728  energy(sigma->0) =      -26.52497452


--------------------------------------------------------------------------------------------------------




--------------------------------------- Iteration      1(   3)  ---------------------------------------


     EDDAV:  cpu time   12.1355: real time   12.1691
       DOS:  cpu time    0.0028: real time    0.0028
    --------------------------------------------
      LOOP:  cpu time   12.1383: real time   12.1720

 eigenvalue-minimisations  :  9000
 total energy-change (2. order) :-0.3682890E+03  (-0.3371397E+03)
 number of electron     650.0000000 magnetization 
 augmentation part      650.0000000 magnetization 

 Free energy of the ion-electron system (eV)
  ---------------------------------------------------
  alpha Z        PSCENC =      1162.91707422
  Ewald energy   TEWEN  =    409517.05967866
  -Hartree energ DENC   =   -458116.42656896
  -exchange      EXHF   =         0.00000000
  -V(xc)+E(xc)   XCENC  =       255.92295635
  PAW double counting   =     45006.97779067   -43199.21847856
  entropy T*S    EENTRO =        -0.05240173
  eigenvalues    EBANDS =     -2264.55214101
  atomic energy  EATOM  =     47242.55533565
  Solvation  Ediel_sol  =         0.00000000
  ---------------------------------------------------
  free energy    TOTEN  =      -394.81675471 eV

  energy without entropy =     -394.76435298  energy(sigma->0) =     -394.79928747


--------------------------------------------------------------------------------------------------------




--------------------------------------- Iteration      1(   4)  ---------------------------------------


     EDDAV:  cpu time   13.9646: real time   13.9979
       DOS:  cpu time    0.0028: real time    0.0028
    --------------------------------------------
      LOOP:  cpu time   13.9674: real time   14.0007

 eigenvalue-minimisations  : 10720
 total energy-change (2. order) :-0.1773433E+02  (-0.1649620E+02)
 number of electron     650.0000000 magnetization 
 augmentation part      650.0000000 magnetization 

 Free energy of the ion-electron system (eV)
  ---------------------------------------------------
  alpha Z        PSCENC =      1162.91707422
  Ewald energy   TEWEN  =    409517.05967866
  -Hartree energ DENC   =   -458116.42656896
  -exchange      EXHF   =         0.00000000
  -V(xc)+E(xc)   XCENC  =       255.92295635
  PAW double counting   =     45006.97779067   -43199.21847856
  entropy T*S    EENTRO =        -0.08174479
  eigenvalues    EBANDS =     -2282.25712581
  atomic energy  EATOM  =     47242.55533565
  Solvation  Ediel_sol  =         0.00000000
  ---------------------------------------------------
  free energy    TOTEN  =      -412.55108257 eV

  energy without entropy =     -412.46933778  energy(sigma->0) =     -412.52383431


--------------------------------------------------------------------------------------------------------




--------------------------------------- Iteration      1(   5)  ---------------------------------------


     EDDAV:  cpu time   13.7090: real time   13.7436
       DOS:  cpu time    0.0029: real time    0.0029
    CHARGE:  cpu time    0.2804: real time    0.2811
    MIXING:  cpu time    0.0020: real time    0.0022
    --------------------------------------------
      LOOP:  cpu time   13.9943: real time   14.0298

 eigenvalue-minimisations  : 10488
 total energy-change (2. order) :-0.5299389E+00  (-0.5169837E+00)
 number of electron     649.9998941 magnetization 
 augmentation part      186.9180597 magnetization 

 Broyden mixing:
  rms(total) = 0.82837E+01    rms(broyden)= 0.82835E+01
  rms(prec ) = 0.83489E+01
  weight for this iteration     100.00

 Free energy of the ion-electron system (eV)
  ---------------------------------------------------
  alpha Z        PSCENC =      1162.91707422
  Ewald energy   TEWEN  =    409517.05967866
  -Hartree energ DENC   =   -458116.42656896
  -exchange      EXHF   =         0.00000000
  -V(xc)+E(xc)   XCENC  =       255.92295635
  PAW double counting   =     45006.97779067   -43199.21847856
  entropy T*S    EENTRO =        -0.08259506
  eigenvalues    EBANDS =     -2282.78621442
  atomic energy  EATOM  =     47242.55533565
  Solvation  Ediel_sol  =         0.00000000
  ---------------------------------------------------
  free energy    TOTEN  =      -413.08102145 eV

  energy without entropy =     -412.99842639  energy(sigma->0) =     -413.05348977


--------------------------------------------------------------------------------------------------------




--------------------------------------- Iteration      1(   6)  ---------------------------------------


    POTLOK:  cpu time    0.0222: real time    0.0240
    SETDIJ:  cpu time    0.0040: real time    0.0072
    EDDIAG:  cpu time    1.5549: real time    1.5589
  RMM-DIIS:  cpu time    4.9046: real time    4.9162
    ORTHCH:  cpu time    0.4852: real time    0.4867
       DOS:  cpu time    0.0034: real time    0.0034
    CHARGE:  cpu time    0.2803: real time    0.2810
    MIXING:  cpu time    0.0015: real time    0.0015
    --------------------------------------------
      LOOP:  cpu time    7.2562: real time    7.2789

 eigenvalue-minimisations  :  7870
 total energy-change (2. order) : 0.1305704E+02  (-0.7548961E+01)
 number of electron     649.9998899 magnetization 
 augmentation part      197.4687527 magnetization 

 Broyden mixing:
  rms(total) = 0.61085E+01    rms(broyden)= 0.61083E+01
  rms(prec ) = 0.63410E+01
  weight for this iteration     100.00

 eigenvalues of (default mixing * dielectric matrix)
  average eigenvalue GAMMA=   1.2034
  1.2034

 Free energy of the ion-electron system (eV)
  ---------------------------------------------------
  alpha Z        PSCENC =      1162.91707422
  Ewald energy   TEWEN  =    409517.05967866
  -Hartree energ DENC   =   -457296.00118755
  -exchange      EXHF   =         0.00000000
  -V(xc)+E(xc)   XCENC  =       240.19806157
  PAW double counting   =     49639.47176846   -47925.23022335
  entropy T*S    EENTRO =         0.02049802
  eigenvalues    EBANDS =     -2981.01498827
  atomic energy  EATOM  =     47242.55533565
  Solvation  Ediel_sol  =         0.00000000
  ---------------------------------------------------
  free energy    TOTEN  =      -400.02398257 eV

  energy without entropy =     -400.04448060  energy(sigma->0) =     -400.03081525


--------------------------------------------------------------------------------------------------------




--------------------------------------- Iteration      1(   7)  ---------------------------------------


    POTLOK:  cpu time    0.0206: real time    0.0248
    SETDIJ:  cpu time    0.0035: real time    0.0066
    EDDIAG:  cpu time    1.5444: real time    1.5496
  RMM-DIIS:  cpu time    4.8824: real time    4.8949
    ORTHCH:  cpu time    0.4859: real time    0.4872
       DOS:  cpu time    0.0029: real time    0.0029
    CHARGE:  cpu time    0.2787: real time    0.2794
    MIXING:  cpu time    0.0012: real time    0.0013
    --------------------------------------------
      LOOP:  cpu time    7.2196: real time    7.2466

 eigenvalue-minimisations  :  7873
 total energy-change (2. order) :-0.1035529E+03  (-0.1850266E+02)
 number of electron     649.9998840 magnetization 
 augmentation part      193.9975908 magnetization 

 Broyden mixing:
  rms(total) = 0.83072E+01    rms(broyden)= 0.83071E+01
  rms(prec ) = 0.94607E+01
  weight for this iteration     100.00

 eigenvalues of (default mixing * dielectric matrix)
  average eigenvalue GAMMA=   1.1451
  2.0247  0.2655

 Free energy of the ion-electron system (eV)
  ---------------------------------------------------
  alpha Z        PSCENC =      1162.91707422
  Ewald energy   TEWEN  =    409517.05967866
  -Hartree energ DENC   =   -458013.36840599
  -exchange      EXHF   =         0.00000000
  -V(xc)+E(xc)   XCENC  =       234.96941508
  PAW double counting   =     52945.38448605   -51268.02409136
  entropy T*S    EENTRO =        -0.01399731
  eigenvalues    EBANDS =     -2325.05640649
  atomic energy  EATOM  =     47242.55533565
  Solvation  Ediel_sol  =         0.00000000
  ---------------------------------------------------
  free energy    TOTEN  =      -503.57691148 eV

  energy without entropy =     -503.56291416  energy(sigma->0) =     -503.57224571


--------------------------------------------------------------------------------------------------------




--------------------------------------- Iteration      1(   8)  ---------------------------------------


    POTLOK:  cpu time    0.0192: real time    0.0195
    SETDIJ:  cpu time    0.0036: real time    0.0036
    EDDIAG:  cpu time    1.5458: real time    1.5497
  RMM-DIIS:  cpu time    4.7965: real time    4.8087
    ORTHCH:  cpu time    0.4866: real time    0.4879
       DOS:  cpu time    0.0030: real time    0.0030
    CHARGE:  cpu time    0.2775: real time    0.2782
    MIXING:  cpu time    0.0011: real time    0.0011
    --------------------------------------------
      LOOP:  cpu time    7.1335: real time    7.1518

 eigenvalue-minimisations  :  7856
 total energy-change (2. order) : 0.6775754E+02  (-0.6918935E+01)
 number of electron     649.9998827 magnetization 
 augmentation part      199.6001593 magnetization 

 Broyden mixing:
  rms(total) = 0.57104E+01    rms(broyden)= 0.57103E+01
  rms(prec ) = 0.66937E+01
  weight for this iteration     100.00

 eigenvalues of (default mixing * dielectric matrix)
  average eigenvalue GAMMA=   0.9114
  2.1589  0.2876  0.2876

 Free energy of the ion-electron system (eV)
  ---------------------------------------------------
  alpha Z        PSCENC =      1162.91707422
  Ewald energy   TEWEN  =    409517.05967866
  -Hartree energ DENC   =   -457512.28873507
  -exchange      EXHF   =         0.00000000
  -V(xc)+E(xc)   XCENC  =       231.04968894
  PAW double counting   =     56248.77216441   -54615.16113076
  entropy T*S    EENTRO =        -0.01072103
  eigenvalues    EBANDS =     -2710.71273040
  atomic energy  EATOM  =     47242.55533565
  Solvation  Ediel_sol  =         0.00000000
  ---------------------------------------------------
  free energy    TOTEN  =      -435.81937537 eV

  energy without entropy =     -435.80865434  energy(sigma->0) =     -435.81580170


--------------------------------------------------------------------------------------------------------




--------------------------------------- Iteration      1(   9)  ---------------------------------------


    POTLOK:  cpu time    0.0200: real time    0.0241
    SETDIJ:  cpu time    0.0036: real time    0.0036
    EDDIAG:  cpu time    1.5458: real time    1.5495
  RMM-DIIS:  cpu time    4.7859: real time    4.7973
    ORTHCH:  cpu time    0.4865: real time    0.4876
       DOS:  cpu time    0.0029: real time    0.0029
    CHARGE:  cpu time    0.2758: real time    0.2765
    MIXING:  cpu time    0.0012: real time    0.0012
    --------------------------------------------
      LOOP:  cpu time    7.1217: real time    7.1427

 eigenvalue-minimisations  :  7868
 total energy-change (2. order) : 0.1707651E+02  (-0.4999448E+01)
 number of electron     649.9998829 magnetization 
 augmentation part      200.1495108 magnetization 

 Broyden mixing:
  rms(total) = 0.45961E+01    rms(broyden)= 0.45959E+01
  rms(prec ) = 0.62500E+01
  weight for this iteration     100.00

 eigenvalues of (default mixing * dielectric matrix)
  average eigenvalue GAMMA=   0.8401
  2.2325  0.6666  0.3052  0.1560

 Free energy of the ion-electron system (eV)
  ---------------------------------------------------
  alpha Z        PSCENC =      1162.91707422
  Ewald energy   TEWEN  =    409517.05967866
  -Hartree energ DENC   =   -457333.08839942
  -exchange      EXHF   =         0.00000000
  -V(xc)+E(xc)   XCENC  =       231.33358920
  PAW double counting   =     56908.49711683   -55281.09128377
  entropy T*S    EENTRO =        -0.03554957
  eigenvalues    EBANDS =     -2866.89043134
  atomic energy  EATOM  =     47242.55533565
  Solvation  Ediel_sol  =         0.00000000
  ---------------------------------------------------
  free energy    TOTEN  =      -418.74286954 eV

  energy without entropy =     -418.70731997  energy(sigma->0) =     -418.73101968


--------------------------------------------------------------------------------------------------------




--------------------------------------- Iteration      1(  10)  ---------------------------------------


    POTLOK:  cpu time    0.0198: real time    0.0200
    SETDIJ:  cpu time    0.0036: real time    0.0036
    EDDIAG:  cpu time    1.5470: real time    1.5507
  RMM-DIIS:  cpu time    4.8091: real time    4.8204
    ORTHCH:  cpu time    0.4897: real time    0.4908
       DOS:  cpu time    0.0028: real time    0.0028
    CHARGE:  cpu time    0.2753: real time    0.2759
    MIXING:  cpu time    0.0012: real time    0.0012
    --------------------------------------------
      LOOP:  cpu time    7.1485: real time    7.1656

 eigenvalue-minimisations  :  7859
 total energy-change (2. order) : 0.3491273E+01  (-0.3773683E+01)
 number of electron     649.9998924 magnetization 
 augmentation part      199.6605718 magnetization 

 Broyden mixing:
  rms(total) = 0.45020E+01    rms(broyden)= 0.45018E+01
  rms(prec ) = 0.56632E+01
  weight for this iteration     100.00

 eigenvalues of (default mixing * dielectric matrix)
  average eigenvalue GAMMA=   0.7792
  2.3347  0.9174  0.2631  0.2631  0.1179

 Free energy of the ion-electron system (eV)
  ---------------------------------------------------
  alpha Z        PSCENC =      1162.91707422
  Ewald energy   TEWEN  =    409517.05967866
  -Hartree energ DENC   =   -457392.22187592
  -exchange      EXHF   =         0.00000000
  -V(xc)+E(xc)   XCENC  =       232.10776199
  PAW double counting   =     57281.79995590   -55655.24954078
  entropy T*S    EENTRO =        -0.06763456
  eigenvalues    EBANDS =     -2804.15235157
  atomic energy  EATOM  =     47242.55533565
  Solvation  Ediel_sol  =         0.00000000
  ---------------------------------------------------
  free energy    TOTEN  =      -415.25159640 eV

  energy without entropy =     -415.18396184  energy(sigma->0) =     -415.22905154


--------------------------------------------------------------------------------------------------------




--------------------------------------- Iteration      1(  11)  ---------------------------------------


    POTLOK:  cpu time    0.0194: real time    0.0196
    SETDIJ:  cpu time    0.0036: real time    0.0036
    EDDIAG:  cpu time    1.5574: real time    1.5611
  RMM-DIIS:  cpu time    4.8050: real time    4.8199
    ORTHCH:  cpu time    0.4834: real time    0.4845
       DOS:  cpu time    0.0031: real time    0.0031
    CHARGE:  cpu time    0.2762: real time    0.2769
    MIXING:  cpu time    0.0013: real time    0.0013
    --------------------------------------------
      LOOP:  cpu time    7.1494: real time    7.1701

 eigenvalue-minimisations  :  7870
 total energy-change (2. order) : 0.2451890E+02  (-0.7019648E+00)
 number of electron     649.9998889 magnetization 
 augmentation part      199.8730915 magnetization 

 Broyden mixing:
  rms(total) = 0.19594E+01    rms(broyden)= 0.19593E+01
  rms(prec ) = 0.21204E+01
  weight for this iteration     100.00

 eigenvalues of (default mixing * dielectric matrix)
  average eigenvalue GAMMA=   0.7048
  2.1095  0.8004  0.6364  0.2813  0.2813  0.1202

 Free energy of the ion-electron system (eV)
  ---------------------------------------------------
  alpha Z        PSCENC =      1162.91707422
  Ewald energy   TEWEN  =    409517.05967866
  -Hartree energ DENC   =   -457424.71713098
  -exchange      EXHF   =         0.00000000
  -V(xc)+E(xc)   XCENC  =       232.54144505
  PAW double counting   =     57659.11900430   -56034.90950806
  entropy T*S    EENTRO =        -0.07157787
  eigenvalues    EBANDS =     -2745.22701612
  atomic energy  EATOM  =     47242.55533565
  Solvation  Ediel_sol  =         0.00000000
  ---------------------------------------------------
  free energy    TOTEN  =      -390.73269513 eV

  energy without entropy =     -390.66111726  energy(sigma->0) =     -390.70883584


--------------------------------------------------------------------------------------------------------




--------------------------------------- Iteration      1(  12)  ---------------------------------------


    POTLOK:  cpu time    0.0197: real time    0.0200
    SETDIJ:  cpu time    0.0034: real time    0.0034
    EDDIAG:  cpu time    1.5498: real time    1.5534
  RMM-DIIS:  cpu time    4.7994: real time    4.8135
    ORTHCH:  cpu time    0.4852: real time    0.4864
       DOS:  cpu time    0.0030: real time    0.0030
    CHARGE:  cpu time    0.2758: real time    0.2764
    MIXING:  cpu time    0.0013: real time    0.0013
    --------------------------------------------
      LOOP:  cpu time    7.1376: real time    7.1574

 eigenvalue-minimisations  :  7868
 total energy-change (2. order) : 0.3928993E+00  (-0.4802910E+00)
 number of electron     649.9998878 magnetization 
 augmentation part      199.9015432 magnetization 

 Broyden mixing:
  rms(total) = 0.19406E+01    rms(broyden)= 0.19405E+01
  rms(prec ) = 0.23923E+01
  weight for this iteration     100.00

 eigenvalues of (default mixing * dielectric matrix)
  average eigenvalue GAMMA=   0.6558
  2.0529  0.8380  0.5936  0.4740  0.2568  0.2568  0.1184

 Free energy of the ion-electron system (eV)
  ---------------------------------------------------
  alpha Z        PSCENC =      1162.91707422
  Ewald energy   TEWEN  =    409517.05967866
  -Hartree energ DENC   =   -457370.19387166
  -exchange      EXHF   =         0.00000000
  -V(xc)+E(xc)   XCENC  =       233.35732696
  PAW double counting   =     57308.62141361   -55678.87817020
  entropy T*S    EENTRO =        -0.04009478
  eigenvalues    EBANDS =     -2805.73848827
  atomic energy  EATOM  =     47242.55533565
  Solvation  Ediel_sol  =         0.00000000
  ---------------------------------------------------
  free energy    TOTEN  =      -390.33979580 eV

  energy without entropy =     -390.29970103  energy(sigma->0) =     -390.32643088


--------------------------------------------------------------------------------------------------------




--------------------------------------- Iteration      1(  13)  ---------------------------------------


    POTLOK:  cpu time    0.0198: real time    0.0224
    SETDIJ:  cpu time    0.0036: real time    0.0036
    EDDIAG:  cpu time    1.5545: real time    1.5582
  RMM-DIIS:  cpu time    4.8317: real time    4.8432
    ORTHCH:  cpu time    0.4870: real time    0.4884
       DOS:  cpu time    0.0031: real time    0.0031
    CHARGE:  cpu time    0.2782: real time    0.2789
    MIXING:  cpu time    0.0013: real time    0.0013
    --------------------------------------------
      LOOP:  cpu time    7.1793: real time    7.1990

 eigenvalue-minimisations  :  7882
 total energy-change (2. order) : 0.1731550E+01  (-0.2055885E+00)
 number of electron     649.9998885 magnetization 
 augmentation part      199.7949108 magnetization 

 Broyden mixing:
  rms(total) = 0.14626E+01    rms(broyden)= 0.14626E+01
  rms(prec ) = 0.16931E+01
  weight for this iteration     100.00

 eigenvalues of (default mixing * dielectric matrix)
  average eigenvalue GAMMA=   0.6405
  2.1032  0.9258  0.6426  0.6426  0.2632  0.2632  0.1186  0.1651

 Free energy of the ion-electron system (eV)
  ---------------------------------------------------
  alpha Z        PSCENC =      1162.91707422
  Ewald energy   TEWEN  =    409517.05967866
  -Hartree energ DENC   =   -457376.61202418
  -exchange      EXHF   =         0.00000000
  -V(xc)+E(xc)   XCENC  =       233.59672145
  PAW double counting   =     57256.82449656   -55625.80392305
  entropy T*S    EENTRO =        -0.03804380
  eigenvalues    EBANDS =     -2799.10756176
  atomic energy  EATOM  =     47242.55533565
  Solvation  Ediel_sol  =         0.00000000
  ---------------------------------------------------
  free energy    TOTEN  =      -388.60824624 eV

  energy without entropy =     -388.57020244  energy(sigma->0) =     -388.59556498


--------------------------------------------------------------------------------------------------------




--------------------------------------- Iteration      1(  14)  ---------------------------------------


    POTLOK:  cpu time    0.0211: real time    0.0241
    SETDIJ:  cpu time    0.0037: real time    0.0069
    EDDIAG:  cpu time    1.5504: real time    1.5556
  RMM-DIIS:  cpu time    4.8346: real time    4.8470
    ORTHCH:  cpu time    0.4857: real time    0.4869
       DOS:  cpu time    0.0031: real time    0.0031
    CHARGE:  cpu time    0.2779: real time    0.2786
    MIXING:  cpu time    0.0015: real time    0.0015
    --------------------------------------------
      LOOP:  cpu time    7.1781: real time    7.2038

 eigenvalue-minimisations  :  7880
 total energy-change (2. order) : 0.1449711E+01  (-0.9532434E-01)
 number of electron     649.9998878 magnetization 
 augmentation part      199.7010920 magnetization 

 Broyden mixing:
  rms(total) = 0.61394E+00    rms(broyden)= 0.61388E+00
  rms(prec ) = 0.68813E+00
  weight for this iteration     100.00

 eigenvalues of (default mixing * dielectric matrix)
  average eigenvalue GAMMA=   0.6469
  2.1199  0.9407  0.8034  0.8034  0.3295  0.2665  0.2665  0.1188  0.1735

 Free energy of the ion-electron system (eV)
  ---------------------------------------------------
  alpha Z        PSCENC =      1162.91707422
  Ewald energy   TEWEN  =    409517.05967866
  -Hartree energ DENC   =   -457406.88052759
  -exchange      EXHF   =         0.00000000
  -V(xc)+E(xc)   XCENC  =       233.55238629
  PAW double counting   =     57314.84747224   -55684.36137375
  entropy T*S    EENTRO =        -0.03434751
  eigenvalues    EBANDS =     -2766.81423336
  atomic energy  EATOM  =     47242.55533565
  Solvation  Ediel_sol  =         0.00000000
  ---------------------------------------------------
  free energy    TOTEN  =      -387.15853515 eV

  energy without entropy =     -387.12418764  energy(sigma->0) =     -387.14708598


--------------------------------------------------------------------------------------------------------




--------------------------------------- Iteration      1(  15)  ---------------------------------------


    POTLOK:  cpu time    0.0190: real time    0.0210
    SETDIJ:  cpu time    0.0036: real time    0.0036
    EDDIAG:  cpu time    1.5462: real time    1.5501
  RMM-DIIS:  cpu time    4.8329: real time    4.8457
    ORTHCH:  cpu time    0.4893: real time    0.4906
       DOS:  cpu time    0.0030: real time    0.0030
    CHARGE:  cpu time    0.2742: real time    0.2749
    MIXING:  cpu time    0.0016: real time    0.0016
    --------------------------------------------
      LOOP:  cpu time    7.1698: real time    7.1904

 eigenvalue-minimisations  :  7880
 total energy-change (2. order) : 0.5004943E-01  (-0.4345430E-01)
 number of electron     649.9998875 magnetization 
 augmentation part      199.6176746 magnetization 

 Broyden mixing:
  rms(total) = 0.52434E+00    rms(broyden)= 0.52431E+00
  rms(prec ) = 0.60046E+00
  weight for this iteration     100.00

 eigenvalues of (default mixing * dielectric matrix)
  average eigenvalue GAMMA=   0.6485
  2.0142  1.0466  1.0466  0.7964  0.5074  0.2631  0.2631  0.2589  0.1188  0.1702

 Free energy of the ion-electron system (eV)
  ---------------------------------------------------
  alpha Z        PSCENC =      1162.91707422
  Ewald energy   TEWEN  =    409517.05967866
  -Hartree energ DENC   =   -457430.14270888
  -exchange      EXHF   =         0.00000000
  -V(xc)+E(xc)   XCENC  =       233.53694053
  PAW double counting   =     57322.41240439   -55691.95343872
  entropy T*S    EENTRO =        -0.05829235
  eigenvalues    EBANDS =     -2743.43547922
  atomic energy  EATOM  =     47242.55533565
  Solvation  Ediel_sol  =         0.00000000
  ---------------------------------------------------
  free energy    TOTEN  =      -387.10848572 eV

  energy without entropy =     -387.05019337  energy(sigma->0) =     -387.08905493


--------------------------------------------------------------------------------------------------------




--------------------------------------- Iteration      1(  16)  ---------------------------------------


    POTLOK:  cpu time    0.0189: real time    0.0192
    SETDIJ:  cpu time    0.0036: real time    0.0036
    EDDIAG:  cpu time    1.5518: real time    1.5556
  RMM-DIIS:  cpu time    4.8770: real time    4.8893
    ORTHCH:  cpu time    0.4892: real time    0.4905
       DOS:  cpu time    0.0031: real time    0.0031
    CHARGE:  cpu time    0.2748: real time    0.2755
    MIXING:  cpu time    0.0016: real time    0.0016
    --------------------------------------------
      LOOP:  cpu time    7.2201: real time    7.2384

 eigenvalue-minimisations  :  7935
 total energy-change (2. order) : 0.2950616E-01  (-0.1452830E-01)
 number of electron     649.9998875 magnetization 
 augmentation part      199.5431262 magnetization 

 Broyden mixing:
  rms(total) = 0.50127E+00    rms(broyden)= 0.50126E+00
  rms(prec ) = 0.56082E+00
  weight for this iteration     100.00

 eigenvalues of (default mixing * dielectric matrix)
  average eigenvalue GAMMA=   0.6525
  1.8069  1.3535  1.3535  0.6244  0.6244  0.3637  0.2702  0.2702  0.1188  0.2194
  0.1729

 Free energy of the ion-electron system (eV)
  ---------------------------------------------------
  alpha Z        PSCENC =      1162.91707422
  Ewald energy   TEWEN  =    409517.05967866
  -Hartree energ DENC   =   -457445.11418239
  -exchange      EXHF   =         0.00000000
  -V(xc)+E(xc)   XCENC  =       233.67059512
  PAW double counting   =     57245.56183686   -55613.94065030
  entropy T*S    EENTRO =        -0.06267735
  eigenvalues    EBANDS =     -2729.72599004
  atomic energy  EATOM  =     47242.55533565
  Solvation  Ediel_sol  =         0.00000000
  ---------------------------------------------------
  free energy    TOTEN  =      -387.07897956 eV

  energy without entropy =     -387.01630221  energy(sigma->0) =     -387.05808711


--------------------------------------------------------------------------------------------------------




--------------------------------------- Iteration      1(  17)  ---------------------------------------


    POTLOK:  cpu time    0.0191: real time    0.0194
    SETDIJ:  cpu time    0.0036: real time    0.0036
    EDDIAG:  cpu time    1.5610: real time    1.5647
  RMM-DIIS:  cpu time    4.8457: real time    4.8571
    ORTHCH:  cpu time    0.4898: real time    0.4910
       DOS:  cpu time    0.0032: real time    0.0032
    CHARGE:  cpu time    0.2751: real time    0.2757
    MIXING:  cpu time    0.0017: real time    0.0017
    --------------------------------------------
      LOOP:  cpu time    7.1992: real time    7.2163

 eigenvalue-minimisations  :  7880
 total energy-change (2. order) : 0.1105758E+00  (-0.6102424E-02)
 number of electron     649.9998877 magnetization 
 augmentation part      199.5292506 magnetization 

 Broyden mixing:
  rms(total) = 0.36344E+00    rms(broyden)= 0.36343E+00
  rms(prec ) = 0.40397E+00
  weight for this iteration     100.00

 eigenvalues of (default mixing * dielectric matrix)
  average eigenvalue GAMMA=   0.7119
  2.0543  2.0543  1.3557  0.6869  0.6869  0.4552  0.2673  0.2673  0.2537  0.1188
  0.1715  0.1715

 Free energy of the ion-electron system (eV)
  ---------------------------------------------------
  alpha Z        PSCENC =      1162.91707422
  Ewald energy   TEWEN  =    409517.05967866
  -Hartree energ DENC   =   -457449.39292913
  -exchange      EXHF   =         0.00000000
  -V(xc)+E(xc)   XCENC  =       233.83169574
  PAW double counting   =     57175.99281035   -55543.23044597
  entropy T*S    EENTRO =        -0.05517640
  eigenvalues    EBANDS =     -2726.64644689
  atomic energy  EATOM  =     47242.55533565
  Solvation  Ediel_sol  =         0.00000000
  ---------------------------------------------------
  free energy    TOTEN  =      -386.96840377 eV

  energy without entropy =     -386.91322737  energy(sigma->0) =     -386.95001164


--------------------------------------------------------------------------------------------------------




--------------------------------------- Iteration      1(  18)  ---------------------------------------


    POTLOK:  cpu time    0.0199: real time    0.0237
    SETDIJ:  cpu time    0.0036: real time    0.0036
    EDDIAG:  cpu time    1.5544: real time    1.5582
  RMM-DIIS:  cpu time    4.8612: real time    4.8756
    ORTHCH:  cpu time    0.4880: real time    0.4891
       DOS:  cpu time    0.0031: real time    0.0031
    CHARGE:  cpu time    0.2769: real time    0.2776
    MIXING:  cpu time    0.0017: real time    0.0017
    --------------------------------------------
      LOOP:  cpu time    7.2089: real time    7.2327

 eigenvalue-minimisations  :  7870
 total energy-change (2. order) : 0.9328147E-01  (-0.1074317E-01)
 number of electron     649.9998878 magnetization 
 augmentation part      199.5051207 magnetization 

 Broyden mixing:
  rms(total) = 0.20351E+00    rms(broyden)= 0.20349E+00
  rms(prec ) = 0.22506E+00
  weight for this iteration     100.00

 eigenvalues of (default mixing * dielectric matrix)
  average eigenvalue GAMMA=   0.7123
  2.1516  2.1516  1.3874  0.6714  0.6714  0.5855  0.4163  0.2671  0.2671  0.2442
  0.1188  0.1720  0.1549

 Free energy of the ion-electron system (eV)
  ---------------------------------------------------
  alpha Z        PSCENC =      1162.91707422
  Ewald energy   TEWEN  =    409517.05967866
  -Hartree energ DENC   =   -457455.63583451
  -exchange      EXHF   =         0.00000000
  -V(xc)+E(xc)   XCENC  =       234.09616433
  PAW double counting   =     57097.14147670   -55462.82985534
  entropy T*S    EENTRO =        -0.03911588
  eigenvalues    EBANDS =     -2722.14004615
  atomic energy  EATOM  =     47242.55533565
  Solvation  Ediel_sol  =         0.00000000
  ---------------------------------------------------
  free energy    TOTEN  =      -386.87512230 eV

  energy without entropy =     -386.83600642  energy(sigma->0) =     -386.86208368


--------------------------------------------------------------------------------------------------------




--------------------------------------- Iteration      1(  19)  ---------------------------------------


    POTLOK:  cpu time    0.0192: real time    0.0210
    SETDIJ:  cpu time    0.0036: real time    0.0036
    EDDIAG:  cpu time    1.5588: real time    1.5625
  RMM-DIIS:  cpu time    4.8585: real time    4.8708
    ORTHCH:  cpu time    0.4902: real time    0.4913
       DOS:  cpu time    0.0029: real time    0.0029
    CHARGE:  cpu time    0.2766: real time    0.2772
    MIXING:  cpu time    0.0018: real time    0.0018
    --------------------------------------------
      LOOP:  cpu time    7.2115: real time    7.2311

 eigenvalue-minimisations  :  7876
 total energy-change (2. order) : 0.8799335E-02  (-0.4127721E-02)
 number of electron     649.9998877 magnetization 
 augmentation part      199.4892516 magnetization 

 Broyden mixing:
  rms(total) = 0.12826E+00    rms(broyden)= 0.12826E+00
  rms(prec ) = 0.13687E+00
  weight for this iteration     100.00

 eigenvalues of (default mixing * dielectric matrix)
  average eigenvalue GAMMA=   0.6857
[...]
      5.607144  8.093264 12.289255            0           0           0  
      4.205344  5.665275 12.289255            0           0           0  
      8.410744  8.093264 12.289255            0           0           0  
      7.008944  5.665275 12.289255            0           0           0  
      8.410856  6.474669 14.578180            0           0           0  
      9.812656  8.902658 14.578180            0           0           0  
      5.607256  6.474669 14.578180            0           0           0  
      7.009056  8.902658 14.578180            0           0           0  
      5.604725  4.859710 16.845724            0           0           0  
      7.009448  7.288519 16.831123            0           0           0  
      8.407333  4.846802 16.893671            0           0           0  
      9.808663  7.285775 16.832467            0           0           0  
      5.605194  8.112099 19.146464            0           0           0  
      4.189551  5.684650 19.148176            0           0           0  
      8.407010  8.111407 19.146370            0           0           0  
      6.970914  5.731861 19.133984            0           0           0  
      8.410744  3.237286 12.289255            0           0           0  
      7.008944  0.809297 12.289255            0           0           0  
     11.214344  3.237286 12.289255            0           0           0  
      9.812544  0.809297 12.289255            0           0           0  
     11.214456  1.618692 14.578180            0           0           0  
     12.616256  4.046680 14.578180            0           0           0  
      8.410856  1.618692 14.578180            0           0           0  
      9.812656  4.046680 14.578180            0           0           0  
      8.409061  0.005634 16.846630            0           0           0  
      9.778252  2.452977 16.920394            0           0           0  
     11.207264  0.015168 16.837107            0           0           0  
     12.604778  2.431435 16.834390            0           0           0  
      8.408045  3.254600 19.331409            0           0           0  
      6.980161  0.778350 19.142365            0           0           0  
     11.264043  3.250802 19.150109            0           0           0  
      9.827916  0.779915 19.152378            0           0           0  
     11.214344  8.093264 12.289255            0           0           0  
      9.812544  5.665275 12.289255            0           0           0  
     14.017944  8.093264 12.289255            0           0           0  
     12.616144  5.665275 12.289255            0           0           0  
     14.018056  6.474669 14.578180            0           0           0  
     15.419856  8.902658 14.578180            0           0           0  
     11.214456  6.474669 14.578180            0           0           0  
     12.616256  8.902658 14.578180            0           0           0  
     11.211772  4.858941 16.847521            0           0           0  
     12.613650  7.288285 16.844631            0           0           0  
     14.016846  4.856056 16.844406            0           0           0  
     15.418976  7.289461 16.843467            0           0           0  
     11.205652  8.108402 19.147404            0           0           0  
      9.839676  5.727125 19.138622            0           0           0  
     14.013431  8.099604 19.150603            0           0           0  
     12.621124  5.683040 19.148958            0           0           0  
      8.192337  3.666158 22.294252    -0.148861   -0.377900    0.103593  
      8.277342  3.491665 21.151093     0.354617    0.833973   -0.055102  
 
   4 f  =   11.676330 THz    73.364545 2PiTHz  389.480432 cm-1    48.289437 meV
             X         Y         Z           dx          dy          dz
      2.803544  3.237286 12.289255            0           0           0  
      1.401744  0.809297 12.289255            0           0           0  
      5.607144  3.237286 12.289255            0           0           0  
      4.205344  0.809297 12.289255            0           0           0  
      5.607256  1.618692 14.578180            0           0           0  
      7.009056  4.046680 14.578180            0           0           0  
      2.803656  1.618692 14.578180            0           0           0  
      4.205456  4.046680 14.578180            0           0           0  
      2.801338  0.005419 16.845042            0           0           0  
      4.208906  2.428816 16.832595            0           0           0  
      5.607833  0.009512 16.834658            0           0           0  
      7.027707  2.449402 16.906574            0           0           0  
      2.798350  3.242281 19.147002            0           0           0  
      1.400301  0.820842 19.148231            0           0           0  
      5.541190  3.251383 19.142347            0           0           0  
      4.198253  0.818159 19.150530            0           0           0  
      5.607144  8.093264 12.289255            0           0           0  
      4.205344  5.665275 12.289255            0           0           0  
      8.410744  8.093264 12.289255            0           0           0  
      7.008944  5.665275 12.289255            0           0           0  
      8.410856  6.474669 14.578180            0           0           0  
      9.812656  8.902658 14.578180            0           0           0  
      5.607256  6.474669 14.578180            0           0           0  
      7.009056  8.902658 14.578180            0           0           0  
      5.604725  4.859710 16.845724            0           0           0  
      7.009448  7.288519 16.831123            0           0           0  
      8.407333  4.846802 16.893671            0           0           0  
      9.808663  7.285775 16.832467            0           0           0  
      5.605194  8.112099 19.146464            0           0           0  
      4.189551  5.684650 19.148176            0           0           0  
      8.407010  8.111407 19.146370            0           0           0  
      6.970914  5.731861 19.133984            0           0           0  
      8.410744  3.237286 12.289255            0           0           0  
      7.008944  0.809297 12.289255            0           0           0  
     11.214344  3.237286 12.289255            0           0           0  
      9.812544  0.809297 12.289255            0           0           0  
     11.214456  1.618692 14.578180            0           0           0  
     12.616256  4.046680 14.578180            0           0           0  
      8.410856  1.618692 14.578180            0           0           0  
      9.812656  4.046680 14.578180            0           0           0  
      8.409061  0.005634 16.846630            0           0           0  
      9.778252  2.452977 16.920394            0           0           0  
     11.207264  0.015168 16.837107            0           0           0  
     12.604778  2.431435 16.834390            0           0           0  
      8.408045  3.254600 19.331409            0           0           0  
      6.980161  0.778350 19.142365            0           0           0  
     11.264043  3.250802 19.150109            0           0           0  
      9.827916  0.779915 19.152378            0           0           0  
     11.214344  8.093264 12.289255            0           0           0  
      9.812544  5.665275 12.289255            0           0           0  
     14.017944  8.093264 12.289255            0           0           0  
     12.616144  5.665275 12.289255            0           0           0  
     14.018056  6.474669 14.578180            0           0           0  
     15.419856  8.902658 14.578180            0           0           0  
     11.214456  6.474669 14.578180            0           0           0  
     12.616256  8.902658 14.578180            0           0           0  
     11.211772  4.858941 16.847521            0           0           0  
     12.613650  7.288285 16.844631            0           0           0  
     14.016846  4.856056 16.844406            0           0           0  
     15.418976  7.289461 16.843467            0           0           0  
     11.205652  8.108402 19.147404            0           0           0  
      9.839676  5.727125 19.138622            0           0           0  
     14.013431  8.099604 19.150603            0           0           0  
     12.621124  5.683040 19.148958            0           0           0  
      8.192337  3.666158 22.294252     0.409825   -0.175875    0.106779  
      8.277342  3.491665 21.151093    -0.823696    0.325696   -0.071813  
 
   5 f  =    2.440709 THz    15.335427 2PiTHz   81.413286 cm-1    10.093965 meV
             X         Y         Z           dx          dy          dz
      2.803544  3.237286 12.289255            0           0           0  
      1.401744  0.809297 12.289255            0           0           0  
      5.607144  3.237286 12.289255            0           0           0  
      4.205344  0.809297 12.289255            0           0           0  
      5.607256  1.618692 14.578180            0           0           0  
      7.009056  4.046680 14.578180            0           0           0  
      2.803656  1.618692 14.578180            0           0           0  
      4.205456  4.046680 14.578180            0           0           0  
      2.801338  0.005419 16.845042            0           0           0  
      4.208906  2.428816 16.832595            0           0           0  
      5.607833  0.009512 16.834658            0           0           0  
      7.027707  2.449402 16.906574            0           0           0  
      2.798350  3.242281 19.147002            0           0           0  
      1.400301  0.820842 19.148231            0           0           0  
      5.541190  3.251383 19.142347            0           0           0  
      4.198253  0.818159 19.150530            0           0           0  
      5.607144  8.093264 12.289255            0           0           0  
      4.205344  5.665275 12.289255            0           0           0  
      8.410744  8.093264 12.289255            0           0           0  
      7.008944  5.665275 12.289255            0           0           0  
      8.410856  6.474669 14.578180            0           0           0  
      9.812656  8.902658 14.578180            0           0           0  
      5.607256  6.474669 14.578180            0           0           0  
      7.009056  8.902658 14.578180            0           0           0  
      5.604725  4.859710 16.845724            0           0           0  
      7.009448  7.288519 16.831123            0           0           0  
      8.407333  4.846802 16.893671            0           0           0  
      9.808663  7.285775 16.832467            0           0           0  
      5.605194  8.112099 19.146464            0           0           0  
      4.189551  5.684650 19.148176            0           0           0  
      8.407010  8.111407 19.146370            0           0           0  
      6.970914  5.731861 19.133984            0           0           0  
      8.410744  3.237286 12.289255            0           0           0  
      7.008944  0.809297 12.289255            0           0           0  
     11.214344  3.237286 12.289255            0           0           0  
      9.812544  0.809297 12.289255            0           0           0  
     11.214456  1.618692 14.578180            0           0           0  
     12.616256  4.046680 14.578180            0           0           0  
      8.410856  1.618692 14.578180            0           0           0  
      9.812656  4.046680 14.578180            0           0           0  
      8.409061  0.005634 16.846630            0           0           0  
      9.778252  2.452977 16.920394            0           0           0  
     11.207264  0.015168 16.837107            0           0           0  
     12.604778  2.431435 16.834390            0           0           0  
      8.408045  3.254600 19.331409            0           0           0  
      6.980161  0.778350 19.142365            0           0           0  
     11.264043  3.250802 19.150109            0           0           0  
      9.827916  0.779915 19.152378            0           0           0  
     11.214344  8.093264 12.289255            0           0           0  
      9.812544  5.665275 12.289255            0           0           0  
     14.017944  8.093264 12.289255            0           0           0  
     12.616144  5.665275 12.289255            0           0           0  
     14.018056  6.474669 14.578180            0           0           0  
     15.419856  8.902658 14.578180            0           0           0  
     11.214456  6.474669 14.578180            0           0           0  
     12.616256  8.902658 14.578180            0           0           0  
     11.211772  4.858941 16.847521            0           0           0  
     12.613650  7.288285 16.844631            0           0           0  
     14.016846  4.856056 16.844406            0           0           0  
     15.418976  7.289461 16.843467            0           0           0  
     11.205652  8.108402 19.147404            0           0           0  
      9.839676  5.727125 19.138622            0           0           0  
     14.013431  8.099604 19.150603            0           0           0  
     12.621124  5.683040 19.148958            0           0           0  
      8.192337  3.666158 22.294252    -0.575152    0.663601   -0.129101  
      8.277342  3.491665 21.151093    -0.304867    0.339573   -0.062562  
 
   6 f/i=    2.444908 THz    15.361809 2PiTHz   81.553344 cm-1    10.111330 meV
             X         Y         Z           dx          dy          dz
      2.803544  3.237286 12.289255            0           0           0  
      1.401744  0.809297 12.289255            0           0           0  
      5.607144  3.237286 12.289255            0           0           0  
      4.205344  0.809297 12.289255            0           0           0  
      5.607256  1.618692 14.578180            0           0           0  
      7.009056  4.046680 14.578180            0           0           0  
      2.803656  1.618692 14.578180            0           0           0  
      4.205456  4.046680 14.578180            0           0           0  
      2.801338  0.005419 16.845042            0           0           0  
      4.208906  2.428816 16.832595            0           0           0  
      5.607833  0.009512 16.834658            0           0           0  
      7.027707  2.449402 16.906574            0           0           0  
      2.798350  3.242281 19.147002            0           0           0  
      1.400301  0.820842 19.148231            0           0           0  
      5.541190  3.251383 19.142347            0           0           0  
      4.198253  0.818159 19.150530            0           0           0  
      5.607144  8.093264 12.289255            0           0           0  
      4.205344  5.665275 12.289255            0           0           0  
      8.410744  8.093264 12.289255            0           0           0  
      7.008944  5.665275 12.289255            0           0           0  
      8.410856  6.474669 14.578180            0           0           0  
      9.812656  8.902658 14.578180            0           0           0  
      5.607256  6.474669 14.578180            0           0           0  
      7.009056  8.902658 14.578180            0           0           0  
      5.604725  4.859710 16.845724            0           0           0  
      7.009448  7.288519 16.831123            0           0           0  
      8.407333  4.846802 16.893671            0           0           0  
      9.808663  7.285775 16.832467            0           0           0  
      5.605194  8.112099 19.146464            0           0           0  
      4.189551  5.684650 19.148176            0           0           0  
      8.407010  8.111407 19.146370            0           0           0  
      6.970914  5.731861 19.133984            0           0           0  
      8.410744  3.237286 12.289255            0           0           0  
      7.008944  0.809297 12.289255            0           0           0  
     11.214344  3.237286 12.289255            0           0           0  
      9.812544  0.809297 12.289255            0           0           0  
     11.214456  1.618692 14.578180            0           0           0  
     12.616256  4.046680 14.578180            0           0           0  
      8.410856  1.618692 14.578180            0           0           0  
      9.812656  4.046680 14.578180            0           0           0  
      8.409061  0.005634 16.846630            0           0           0  
      9.778252  2.452977 16.920394            0           0           0  
     11.207264  0.015168 16.837107            0           0           0  
     12.604778  2.431435 16.834390            0           0           0  
      8.408045  3.254600 19.331409            0           0           0  
      6.980161  0.778350 19.142365            0           0           0  
     11.264043  3.250802 19.150109            0           0           0  
      9.827916  0.779915 19.152378            0           0           0  
     11.214344  8.093264 12.289255            0           0           0  
      9.812544  5.665275 12.289255            0           0           0  
     14.017944  8.093264 12.289255            0           0           0  
     12.616144  5.665275 12.289255            0           0           0  
     14.018056  6.474669 14.578180            0           0           0  
     15.419856  8.902658 14.578180            0           0           0  
     11.214456  6.474669 14.578180            0           0           0  
     12.616256  8.902658 14.578180            0           0           0  
     11.211772  4.858941 16.847521            0           0           0  
     12.613650  7.288285 16.844631            0           0           0  
     14.016846  4.856056 16.844406            0           0           0  
     15.418976  7.289461 16.843467            0           0           0  
     11.205652  8.108402 19.147404            0           0           0  
      9.839676  5.727125 19.138622            0           0           0  
     14.013431  8.099604 19.150603            0           0           0  
     12.621124  5.683040 19.148958            0           0           0  
      8.192337  3.666158 22.294252     0.687469    0.597914   -0.034884  
      8.277342  3.491665 21.151093     0.315019    0.263202   -0.012489  
 
 Finite differences POTIM=  1.500000000000000E-002
     LOOP+:  cpu time  125.6029: real time  125.9516
    4ORBIT:  cpu time    0.0000: real time    0.0000

 total amount of memory used by VASP MPI-rank0   103429. kBytes
=======================================================================

   base      :      30000. kBytes
   nonlr-proj:       3412. kBytes
   fftplans  :       2761. kBytes
   grid      :       4773. kBytes
   one-center:         77. kBytes
   wavefun   :      62406. kBytes
 
  
  
 General timing and accounting informations for this job:
 ========================================================
  
                  Total CPU time used (sec):     1198.885
                            User time (sec):     1198.228
                          System time (sec):        0.657
                         Elapsed time (sec):     1202.693
  
                   Maximum memory used (kb):      460668.
                   Average memory used (kb):           0.
  
                          Minor page faults:       132920
                          Major page faults:            0
                 Voluntary context switches:         2829
