 running on   64 total cores
 distrk:  each k-point on   64 cores,    1 groups
 distr:  one band on   16 cores,    4 groups
 using from now: INCAR     
 vasp.5.4.4.18Apr17-6-g9f103f2a35 (build May 23 2022 10:35:18) complex          
  
 POSCAR found type information on POSCAR  Pt O  C 
 POSCAR found :  3 types and      66 ions
 scaLAPACK will be used
 LDA part: xc-table for Pade appr. of Perdew
 POSCAR found type information on POSCAR  Pt O  C 
 POSCAR found :  3 types and      66 ions
 POSCAR, INCAR and KPOINTS ok, starting setup
 FFT: planning ...
 WAVECAR not read
 entering main loop
       N       E                     dE             d eps       ncg     rms          rms(c)
DAV:   1     0.425234714379E+04    0.42523E+04   -0.23758E+05  7912   0.112E+03
DAV:   2    -0.265277181449E+02   -0.42789E+04   -0.39358E+04  9848   0.255E+02
DAV:   3    -0.394816754711E+03   -0.36829E+03   -0.33714E+03  9000   0.722E+01
DAV:   4    -0.412551082572E+03   -0.17734E+02   -0.16496E+02 10720   0.141E+01
DAV:   5    -0.413081021454E+03   -0.52994E+00   -0.51698E+00 10488   0.244E+00    0.828E+01
RMM:   6    -0.400023982573E+03    0.13057E+02   -0.75490E+01  7870   0.137E+01    0.611E+01
RMM:   7    -0.503576911478E+03   -0.10355E+03   -0.18503E+02  7873   0.154E+01    0.831E+01
RMM:   8    -0.435819375373E+03    0.67758E+02   -0.69189E+01  7856   0.101E+01    0.571E+01
RMM:   9    -0.418742869542E+03    0.17077E+02   -0.49994E+01  7868   0.837E+00    0.460E+01
RMM:  10    -0.415251596396E+03    0.34913E+01   -0.37737E+01  7859   0.710E+00    0.450E+01
RMM:  11    -0.390732695134E+03    0.24519E+02   -0.70196E+00  7870   0.340E+00    0.196E+01
RMM:  12    -0.390339795804E+03    0.39290E+00   -0.48029E+00  7868   0.263E+00    0.194E+01
RMM:  13    -0.388608246244E+03    0.17315E+01   -0.20559E+00  7882   0.169E+00    0.146E+01
RMM:  14    -0.387158535152E+03    0.14497E+01   -0.95324E-01  7880   0.117E+00    0.614E+00
RMM:  15    -0.387108485717E+03    0.50049E-01   -0.43454E-01  7880   0.776E-01    0.524E+00
RMM:  16    -0.387078979557E+03    0.29506E-01   -0.14528E-01  7935   0.455E-01    0.501E+00
RMM:  17    -0.386968403772E+03    0.11058E+00   -0.61024E-02  7880   0.311E-01    0.363E+00
RMM:  18    -0.386875122303E+03    0.93281E-01   -0.10743E-01  7870   0.404E-01    0.204E+00
RMM:  19    -0.386866322968E+03    0.87993E-02   -0.41277E-02  7876   0.252E-01    0.128E+00
RMM:  20    -0.386863762610E+03    0.25604E-02   -0.10565E-02  7879   0.138E-01    0.107E+00
RMM:  21    -0.386863425804E+03    0.33681E-03   -0.44488E-03  7875   0.836E-02    0.115E+00
RMM:  22    -0.386857598850E+03    0.58270E-02   -0.34354E-03  7870   0.723E-02    0.834E-01
RMM:  23    -0.386853188041E+03    0.44108E-02   -0.23388E-03  7875   0.580E-02    0.543E-01
RMM:  24    -0.386850867231E+03    0.23208E-02   -0.11156E-03  7917   0.374E-02    0.343E-01
RMM:  25    -0.386850486991E+03    0.38024E-03   -0.32869E-04  7918   0.216E-02    0.298E-01
RMM:  26    -0.386850451145E+03    0.35846E-04   -0.13000E-04  7920   0.131E-02    0.296E-01
RMM:  27    -0.386850117753E+03    0.33339E-03   -0.19750E-04  7860   0.158E-02    0.235E-01
RMM:  28    -0.386849848038E+03    0.26972E-03   -0.10993E-04  7541   0.115E-02    0.152E-01
RMM:  29    -0.386849744327E+03    0.10371E-03   -0.11639E-04  7433   0.119E-02    0.566E-02
RMM:  30    -0.386849808033E+03   -0.63705E-04   -0.22114E-05  4713   0.562E-03    0.628E-02
RMM:  31    -0.386849864499E+03   -0.56466E-04   -0.10355E-05  4338   0.414E-03    0.479E-02
RMM:  32    -0.386849893520E+03   -0.29021E-04   -0.46976E-06  4260   0.279E-03    0.330E-02
RMM:  33    -0.386849967535E+03   -0.74014E-04   -0.60047E-06  4333   0.302E-03    0.130E-02
RMM:  34    -0.386850027378E+03   -0.59843E-04   -0.35970E-06  4088   0.214E-03    0.111E-02
RMM:  35    -0.386850076638E+03   -0.49260E-04   -0.23755E-06  3031   0.162E-03    0.111E-02
RMM:  36    -0.386850117250E+03   -0.40612E-04   -0.19427E-06  2800   0.150E-03    0.120E-02
RMM:  37    -0.386850158942E+03   -0.41693E-04   -0.20871E-06  3079   0.151E-03    0.125E-02
RMM:  38    -0.386850218549E+03   -0.59606E-04   -0.30217E-06  3489   0.171E-03    0.668E-03
RMM:  39    -0.386850246294E+03   -0.27746E-04   -0.16421E-06  2312   0.134E-03    0.400E-03
RMM:  40    -0.386850280327E+03   -0.34033E-04   -0.25094E-06  3197   0.156E-03    0.346E-03
RMM:  41    -0.386850293121E+03   -0.12793E-04   -0.75535E-07  1400   0.107E-03    0.359E-03
RMM:  42    -0.386850305803E+03   -0.12682E-04   -0.65492E-07  1683   0.114E-03    0.264E-03
RMM:  43    -0.386850312051E+03   -0.62487E-05   -0.28987E-07  1238   0.102E-03
   1 F= -.38685031E+03 E0= -.38683765E+03  d E =-.379886E-01
 Finite differences POTIM= 0.01500 DOF=   6
 bond charge predicted
       N       E                     dE             d eps       ncg     rms          rms(c)
DAV:   1    -0.386849189045E+03    0.11168E-02   -0.12120E+00  7936   0.122E+00    0.143E-01
RMM:   2    -0.386850239520E+03   -0.10505E-02   -0.12723E-02  7711   0.105E-01    0.867E-02
RMM:   3    -0.386850338799E+03   -0.99279E-04   -0.41162E-04  7848   0.211E-02    0.136E-01
RMM:   4    -0.386850571228E+03   -0.23243E-03   -0.16305E-04  7836   0.153E-02    0.224E-01
RMM:   5    -0.386850379145E+03    0.19208E-03   -0.13739E-04  7777   0.137E-02    0.155E-01
RMM:   6    -0.386850268505E+03    0.11064E-03   -0.86204E-05  7664   0.118E-02    0.609E-02
RMM:   7    -0.386850245430E+03    0.23075E-04   -0.27438E-05  4687   0.723E-03    0.175E-02
RMM:   8    -0.386850244752E+03    0.67824E-06   -0.58881E-06  4120   0.350E-03
   2 F= -.38685024E+03 E0= -.38683758E+03  d E =-.379986E-01
 Finite differences progress:
  Degree of freedom:   1/  6
  Displacement:        1/  2
  Total:               1/ 12
 bond charge predicted
       N       E                     dE             d eps       ncg     rms          rms(c)
DAV:   1    -0.386845471817E+03    0.47736E-02   -0.48371E+00  7920   0.243E+00    0.288E-01
RMM:   2    -0.386850049262E+03   -0.45774E-02   -0.54061E-02  7861   0.213E-01    0.178E-01
RMM:   3    -0.386850728987E+03   -0.67972E-03   -0.17808E-03  7887   0.465E-02    0.376E-01
RMM:   4    -0.386850745944E+03   -0.16957E-04   -0.70550E-04  7884   0.330E-02    0.365E-01
RMM:   5    -0.386850534911E+03    0.21103E-03   -0.45938E-04  7847   0.246E-02    0.325E-01
RMM:   6    -0.386850035384E+03    0.49953E-03   -0.41906E-04  7857   0.256E-02    0.135E-01
RMM:   7    -0.386849917522E+03    0.11786E-03   -0.15107E-04  7844   0.163E-02    0.329E-02
RMM:   8    -0.386849915608E+03    0.19141E-05   -0.17444E-05  4361   0.567E-03
   3 F= -.38684992E+03 E0= -.38683724E+03  d E =-.380279E-01
 Finite differences progress:
  Degree of freedom:   1/  6
  Displacement:        2/  2
  Total:               2/ 12
 bond charge predicted
       N       E                     dE             d eps       ncg     rms          rms(c)
DAV:   1    -0.386846740131E+03    0.31774E-02   -0.24183E+00  7880   0.173E+00    0.201E-01
RMM:   2    -0.386849009213E+03   -0.22691E-02   -0.26392E-02  7876   0.152E-01    0.151E-01
RMM:   3    -0.386849567879E+03   -0.55867E-03   -0.11686E-03  7868   0.412E-02    0.334E-01
RMM:   4    -0.386849136249E+03    0.43163E-03   -0.47850E-04  7874   0.280E-02    0.204E-01
RMM:   5    -0.386849330647E+03   -0.19440E-03   -0.20794E-04  7831   0.164E-02    0.256E-01
RMM:   6    -0.386849022285E+03    0.30836E-03   -0.24778E-04  7850   0.196E-02    0.132E-01
RMM:   7    -0.386848925821E+03    0.96464E-04   -0.97775E-05  7789   0.132E-02    0.414E-02
RMM:   8    -0.386848917435E+03    0.83863E-05   -0.10624E-05  4225   0.446E-03
   4 F= -.38684892E+03 E0= -.38683626E+03  d E =-.379859E-01
 Finite differences progress:
  Degree of freedom:   2/  6
  Displacement:        1/  2
  Total:               3/ 12
 bond charge predicted
       N       E                     dE             d eps       ncg     rms          rms(c)
DAV:   1    -0.386846098016E+03    0.28278E-02   -0.48445E+00  7840   0.247E+00    0.288E-01
RMM:   2    -0.386851087560E+03   -0.49895E-02   -0.57663E-02  7853   0.215E-01    0.185E-01
RMM:   3    -0.386851166738E+03   -0.79177E-04   -0.17390E-03  7901   0.430E-02    0.234E-01
RMM:   4    -0.386851612734E+03   -0.44600E-03   -0.76591E-04  7883   0.346E-02    0.346E-01
RMM:   5    -0.386852794204E+03   -0.11815E-02   -0.66015E-04  7853   0.288E-02    0.527E-01
RMM:   6    -0.386850985780E+03    0.18084E-02   -0.48360E-04  7846   0.267E-02    0.149E-01
RMM:   7    -0.386850874850E+03    0.11093E-03   -0.17303E-04  7839   0.170E-02    0.496E-02
RMM:   8    -0.386850863960E+03    0.10890E-04   -0.30307E-05  4921   0.738E-03    0.372E-02
RMM:   9    -0.386850858013E+03    0.59467E-05   -0.96970E-06  4221   0.456E-03
   5 F= -.38685086E+03 E0= -.38683820E+03  d E =-.379784E-01
 Finite differences progress:
  Degree of freedom:   2/  6
  Displacement:        2/  2
  Total:               4/ 12
 bond charge predicted
       N       E                     dE             d eps       ncg     rms          rms(c)
DAV:   1    -0.386836298536E+03    0.14565E-01   -0.24651E+00  7848   0.163E+00    0.367E-01
RMM:   2    -0.386838865199E+03   -0.25667E-02   -0.42392E-02  7880   0.178E-01    0.228E-01
RMM:   3    -0.386842668028E+03   -0.38028E-02   -0.30797E-03  7868   0.621E-02    0.776E-01
RMM:   4    -0.386840341655E+03    0.23264E-02   -0.14848E-03  7890   0.452E-02    0.549E-01
RMM:   5    -0.386838607450E+03    0.17342E-02   -0.94992E-04  7872   0.378E-02    0.246E-01
RMM:   6    -0.386838430771E+03    0.17668E-03   -0.53670E-04  7850   0.292E-02    0.155E-01
RMM:   7    -0.386838299554E+03    0.13122E-03   -0.23791E-04  7840   0.199E-02    0.924E-02
RMM:   8    -0.386838261975E+03    0.37578E-04   -0.72909E-05  7467   0.111E-02    0.635E-02
RMM:   9    -0.386838248889E+03    0.13087E-04   -0.24658E-05  4543   0.676E-03    0.346E-02
RMM:  10    -0.386838257738E+03   -0.88491E-05   -0.13233E-05  4256   0.513E-03
   6 F= -.38683826E+03 E0= -.38682557E+03  d E =-.380714E-01
 Finite differences progress:
  Degree of freedom:   3/  6
  Displacement:        1/  2
  Total:               5/ 12
 bond charge predicted
       N       E                     dE             d eps       ncg     rms          rms(c)
DAV:   1    -0.386835748469E+03    0.25004E-02   -0.50450E+00  7888   0.238E+00    0.588E-01
RMM:   2    -0.386842225254E+03   -0.64768E-02   -0.10815E-01  7893   0.264E-01    0.368E-01
RMM:   3    -0.386843070057E+03   -0.84480E-03   -0.87209E-03  7895   0.936E-02    0.629E-01
RMM:   4    -0.386846719585E+03   -0.36495E-02   -0.33403E-03  7919   0.692E-02    0.954E-01
RMM:   5    -0.386842349204E+03    0.43704E-02   -0.22045E-03  7867   0.538E-02    0.574E-01
RMM:   6    -0.386840327226E+03    0.20220E-02   -0.12072E-03  7870   0.438E-02    0.199E-01
RMM:   7    -0.386840241997E+03    0.85229E-04   -0.49827E-04  7850   0.277E-02    0.173E-01
RMM:   8    -0.386840053622E+03    0.18837E-03   -0.19178E-04  7819   0.179E-02    0.808E-02
RMM:   9    -0.386840039183E+03    0.14439E-04   -0.87445E-05  7681   0.118E-02    0.683E-02
RMM:  10    -0.386840031969E+03    0.72139E-05   -0.33722E-05  5127   0.765E-03
   7 F= -.38684003E+03 E0= -.38682741E+03  d E =-.378720E-01
 Finite differences progress:
  Degree of freedom:   3/  6
  Displacement:        2/  2
  Total:               6/ 12
 bond charge predicted
       N       E                     dE             d eps       ncg     rms          rms(c)
DAV:   1    -0.386847912459E+03   -0.78733E-02   -0.17345E+00  7880   0.123E+00    0.343E-01
RMM:   2    -0.386850642361E+03   -0.27299E-02   -0.40654E-02  7897   0.168E-01    0.235E-01
RMM:   3    -0.386853147579E+03   -0.25052E-02   -0.29426E-03  7884   0.604E-02    0.671E-01
RMM:   4    -0.386852389579E+03    0.75800E-03   -0.13775E-03  7900   0.433E-02    0.587E-01
RMM:   5    -0.386850394450E+03    0.19951E-02   -0.95775E-04  7873   0.375E-02    0.263E-01
RMM:   6    -0.386850279135E+03    0.11532E-03   -0.64197E-04  7865   0.321E-02    0.192E-01
RMM:   7    -0.386850131155E+03    0.14798E-03   -0.32483E-04  7842   0.227E-02    0.120E-01
RMM:   8    -0.386850024374E+03    0.10678E-03   -0.10704E-04  7760   0.134E-02    0.500E-02
RMM:   9    -0.386850016084E+03    0.82904E-05   -0.31634E-05  4901   0.754E-03
   8 F= -.38685002E+03 E0= -.38683735E+03  d E =-.379922E-01
 Finite differences progress:
  Degree of freedom:   4/  6
  Displacement:        1/  2
  Total:               7/ 12
 bond charge predicted
       N       E                     dE             d eps       ncg     rms          rms(c)
DAV:   1    -0.386847945741E+03    0.20786E-02   -0.17232E+00  7840   0.111E+00    0.291E-01
RMM:   2    -0.386849645948E+03   -0.17002E-02   -0.16535E-02  7884   0.148E-01    0.286E-01
RMM:   3    -0.386851196913E+03   -0.15510E-02   -0.18177E-03  7889   0.533E-02    0.559E-01
RMM:   4    -0.386854246244E+03   -0.30493E-02   -0.15824E-03  7873   0.450E-02    0.836E-01
RMM:   5    -0.386849695569E+03    0.45507E-02   -0.11991E-03  7866   0.419E-02    0.247E-01
RMM:   6    -0.386849376213E+03    0.31936E-03   -0.55288E-04  7858   0.305E-02    0.821E-02
RMM:   7    -0.386849385118E+03   -0.89050E-05   -0.13682E-04  7824   0.146E-02    0.875E-02
RMM:   8    -0.386849334490E+03    0.50628E-04   -0.46575E-05  6170   0.892E-03    0.415E-02
RMM:   9    -0.386849324958E+03    0.95319E-05   -0.13262E-05  4235   0.514E-03
   9 F= -.38684932E+03 E0= -.38683666E+03  d E =-.379966E-01
 Finite differences progress:
  Degree of freedom:   4/  6
  Displacement:        2/  2
  Total:               8/ 12
 bond charge predicted
       N       E                     dE             d eps       ncg     rms          rms(c)
DAV:   1    -0.386848551129E+03    0.78336E-03   -0.86121E-01  7840   0.770E-01    0.201E-01
RMM:   2    -0.386849243248E+03   -0.69212E-03   -0.78227E-03  7879   0.101E-01    0.147E-01
RMM:   3    -0.386849821461E+03   -0.57821E-03   -0.92867E-04  7878   0.384E-02    0.312E-01
RMM:   4    -0.386849535774E+03    0.28569E-03   -0.54733E-04  7867   0.299E-02    0.211E-01
RMM:   5    -0.386849847994E+03   -0.31222E-03   -0.28275E-04  7839   0.200E-02    0.296E-01
RMM:   6    -0.386849253089E+03    0.59491E-03   -0.14116E-04  7781   0.141E-02    0.803E-02
RMM:   7    -0.386849248056E+03    0.50322E-05   -0.59848E-05  6875   0.995E-03
  10 F= -.38684925E+03 E0= -.38683650E+03  d E =-.382546E-01
 Finite differences progress:
  Degree of freedom:   5/  6
  Displacement:        1/  2
  Total:               9/ 12
 bond charge predicted
       N       E                     dE             d eps       ncg     rms          rms(c)
DAV:   1    -0.386848346347E+03    0.90674E-03   -0.17271E+00  7840   0.110E+00    0.298E-01
RMM:   2    -0.386849851456E+03   -0.15051E-02   -0.17343E-02  7890   0.150E-01    0.226E-01
RMM:   3    -0.386850836519E+03   -0.98506E-03   -0.18829E-03  7893   0.544E-02    0.432E-01
RMM:   4    -0.386850239016E+03    0.59750E-03   -0.12084E-03  7878   0.442E-02    0.281E-01
RMM:   5    -0.386851664668E+03   -0.14257E-02   -0.74515E-04  7869   0.325E-02    0.524E-01
RMM:   6    -0.386849783717E+03    0.18810E-02   -0.39029E-04  7838   0.230E-02    0.145E-01
RMM:   7    -0.386849725943E+03    0.57775E-04   -0.17242E-04  7828   0.168E-02    0.829E-02
RMM:   8    -0.386849692765E+03    0.33177E-04   -0.61487E-05  7055   0.999E-03    0.542E-02
RMM:   9    -0.386849677274E+03    0.15492E-04   -0.18969E-05  4344   0.604E-03    0.288E-02
RMM:  10    -0.386849673073E+03    0.42005E-05   -0.60747E-06  4142   0.358E-03
  11 F= -.38684967E+03 E0= -.38683704E+03  d E =-.378845E-01
 Finite differences progress:
  Degree of freedom:   5/  6
  Displacement:        2/  2
  Total:              10/ 12
 bond charge predicted
       N       E                     dE             d eps       ncg     rms          rms(c)
DAV:   1    -0.386838696417E+03    0.10981E-01   -0.10375E+00  7840   0.924E-01    0.454E-01
RMM:   2    -0.386839902590E+03   -0.12062E-02   -0.26052E-02  7895   0.177E-01    0.382E-01
RMM:   3    -0.386841975050E+03   -0.20725E-02   -0.29901E-03  7878   0.633E-02    0.648E-01
RMM:   4    -0.386847507233E+03   -0.55322E-02   -0.31072E-03  7879   0.625E-02    0.111E+00
RMM:   5    -0.386840810274E+03    0.66970E-02   -0.32353E-03  7867   0.689E-02    0.568E-01
RMM:   6    -0.386838857484E+03    0.19528E-02   -0.13275E-03  7870   0.467E-02    0.180E-01
RMM:   7    -0.386838630146E+03    0.22734E-03   -0.31730E-04  7845   0.223E-02    0.883E-02
RMM:   8    -0.386838587818E+03    0.42328E-04   -0.95981E-05  7572   0.119E-02    0.659E-02
RMM:   9    -0.386838571387E+03    0.16431E-04   -0.39045E-05  5308   0.809E-03    0.430E-02
RMM:  10    -0.386838571065E+03    0.32140E-06   -0.20176E-05  4449   0.612E-03
  12 F= -.38683857E+03 E0= -.38682583E+03  d E =-.382148E-01
 Finite differences progress:
  Degree of freedom:   6/  6
  Displacement:        1/  2
  Total:              11/ 12
 bond charge predicted
       N       E                     dE             d eps       ncg     rms          rms(c)
DAV:   1    -0.386837442787E+03    0.11286E-02   -0.22246E+00  7856   0.130E+00    0.767E-01
RMM:   2    -0.386839318317E+03   -0.18755E-02   -0.61934E-02  7920   0.277E-01    0.650E-01
RMM:   3    -0.386838668531E+03    0.64979E-03   -0.76322E-03  7882   0.102E-01    0.535E-01
RMM:   4    -0.386856269953E+03   -0.17601E-01   -0.11716E-02  7884   0.130E-01    0.169E+00
RMM:   5    -0.386850967060E+03    0.53029E-02   -0.69622E-03  7883   0.955E-02    0.144E+00
RMM:   6    -0.386836555464E+03    0.14412E-01   -0.40738E-03  7867   0.777E-02    0.340E-01
RMM:   7    -0.386835840169E+03    0.71530E-03   -0.88214E-04  7860   0.370E-02    0.149E-01
RMM:   8    -0.386835765336E+03    0.74833E-04   -0.28240E-04  7870   0.203E-02    0.106E-01
RMM:   9    -0.386835734630E+03    0.30707E-04   -0.11949E-04  7804   0.138E-02    0.621E-02
RMM:  10    -0.386835755025E+03   -0.20396E-04   -0.42831E-05  5755   0.840E-03    0.483E-02
RMM:  11    -0.386835765441E+03   -0.10416E-04   -0.17327E-05  4408   0.585E-03    0.270E-02
RMM:  12    -0.386835790943E+03   -0.25502E-04   -0.95856E-06  4315   0.433E-03    0.219E-02
RMM:  13    -0.386835841771E+03   -0.50828E-04   -0.91178E-06  4339   0.381E-03    0.143E-02
RMM:  14    -0.386835862561E+03   -0.20790E-04   -0.30368E-06  4170   0.236E-03    0.126E-02
RMM:  15    -0.386835882414E+03   -0.19854E-04   -0.17754E-06  3487   0.172E-03    0.969E-03
RMM:  16    -0.386835918566E+03   -0.36152E-04   -0.23958E-06  2877   0.165E-03    0.344E-03
RMM:  17    -0.386835937382E+03   -0.18816E-04   -0.11282E-06  2135   0.135E-03    0.312E-03
RMM:  18    -0.386835977913E+03   -0.40531E-04   -0.43566E-06  3507   0.198E-03    0.435E-03
RMM:  19    -0.386835994269E+03   -0.16356E-04   -0.14838E-06  2097   0.130E-03    0.289E-03
RMM:  20    -0.386836003013E+03   -0.87444E-05   -0.67599E-07  1504   0.112E-03
  13 F= -.38683600E+03 E0= -.38682339E+03  d E =-.378440E-01
 Finite differences progress:
  Degree of freedom:   6/  6
  Displacement:        2/  2
  Total:              12/ 12
 Finite differences POTIM=  1.500000000000000E-002
