<?xml version="1.0" encoding="ISO-8859-1"?>
<modeling>
 <generator>
  <i name="program" type="string">vasp </i>
  <i name="version" type="string">5.4.4.18Apr17-6-g9f103f2a35  </i>
  <i name="subversion" type="string">(build May 23 2022 10:35:18) complex            parallel </i>
  <i name="platform" type="string">IFC18_impi </i>
  <i name="date" type="string">2023 06 20 </i>
  <i name="time" type="string">15:32:59 </i>
 </generator>
 <incar>
  <i type="string" name="SYSTEM"> Pt</i>
  <i type="int" name="ISTART">     0</i>
  <i type="string" name="PREC">med   normal | accurate</i>
  <i type="string" name="ALGO">  Fast    Normal, Fast, Very_Fast</i>
  <i type="int" name="ICHARG">     2</i>
  <i type="int" name="INIWAV">     1</i>
  <i type="int" name="NELM">   100</i>
  <i type="int" name="IBRION">     5</i>
  <i type="int" name="NFREE">     2</i>
  <i name="EDIFF">      0.00001000</i>
  <i type="int" name="NSW">     1</i>
  <i type="int" name="ISIF">     1</i>
  <i type="int" name="ISYM">     0</i>
  <i name="ENCUT">    400.00000000</i>
  <i name="POTIM">      0.01500000</i>
  <i type="string" name="LREAL">  Auto     real-space projection (.FALSE</i>
  <i type="int" name="ISMEAR">     1</i>
  <i name="SIGMA">      0.10000000</i>
  <i type="int" name="NWRITE">     2</i>
  <i type="logical" name="LWAVE"> F  </i>
  <i type="logical" name="LCHARG"> F  </i>
  <i type="logical" name="LAECHG"> F  </i>
  <v type="int" name="KPOINT_BSE">    -1     0     0     0</v>
  <i type="int" name="NELM">   100</i>
 </incar>
 <structure name="primitive_cell" >
  <crystal>
   <varray name="basis" >
    <v>      11.21440000       0.00000000       0.00000000 </v>
    <v>       5.60720000       9.71195529       0.00000000 </v>
    <v>       0.00000000       0.00000000      31.44560000 </v>
   </varray>
   <i name="volume">   3424.85826052 </i>
   <varray name="rec_basis" >
    <v>       0.08917107      -0.05148294       0.00000000 </v>
    <v>       0.00000000       0.10296588       0.00000000 </v>
    <v>       0.00000000       0.00000000       0.03180095 </v>
   </varray>
  </crystal>
  <varray name="positions" >
   <v>       0.08333000       0.33333000       0.39081000 </v>
   <v>       0.16667000       0.16667000       0.46360000 </v>
   <v>      -0.08333000       0.41667000       0.46360000 </v>
   <v>       0.16667000       0.41667000       0.46360000 </v>
   <v>       0.33333000       0.08333000       0.39081000 </v>
   <v>      -0.16667000      -0.41667000       0.39081000 </v>
   <v>       0.33333000       0.33333000       0.39081000 </v>
   <v>      -0.16667000       0.33333000       0.39081000 </v>
   <v>       0.08333000       0.08333000       0.39081000 </v>
   <v>       0.08333000      -0.41667000       0.39081000 </v>
   <v>      -0.08333000       0.16667000       0.46360000 </v>
   <v>       0.41667000       0.16667000       0.46360000 </v>
   <v>      -0.08333000      -0.33333000       0.46360000 </v>
   <v>       0.25027000       0.25008522      -0.46470746 </v>
   <v>      -0.00119596       0.25035481      -0.46465037 </v>
   <v>      -0.00010693      -0.49999194      -0.46433187 </v>
   <v>       0.16667000      -0.08333000       0.46360000 </v>
   <v>      -0.33333000       0.41667000       0.46360000 </v>
   <v>       0.41667000      -0.08333000       0.46360000 </v>
   <v>      -0.33333000      -0.33333000       0.46360000 </v>
   <v>       0.33333000      -0.16667000       0.39081000 </v>
   <v>      -0.41667000      -0.41667000       0.39081000 </v>
   <v>      -0.41667000       0.08333000       0.39081000 </v>
   <v>      -0.16667000       0.08333000       0.39081000 </v>
   <v>       0.33333000      -0.41667000       0.39081000 </v>
   <v>      -0.16667000      -0.16667000       0.39081000 </v>
   <v>       0.16667000      -0.33333000       0.46360000 </v>
   <v>       0.41667000       0.41667000       0.46360000 </v>
   <v>       0.24951926       0.00055800      -0.46431164 </v>
   <v>       0.24958714      -0.49961569      -0.46428996 </v>
   <v>      -0.25038687      -0.49969490      -0.46423281 </v>
   <v>       0.08333000      -0.16667000       0.39081000 </v>
   <v>      -0.41667000       0.33333000       0.39081000 </v>
   <v>      -0.41667000      -0.16667000       0.39081000 </v>
   <v>       0.49956672       0.00097941      -0.46464187 </v>
   <v>      -0.00141715       0.00156174      -0.46456398 </v>
   <v>      -0.00035636      -0.24943429      -0.46436172 </v>
   <v>      -0.25044971      -0.24955530      -0.46432470 </v>
   <v>      -0.33333000       0.16667000       0.46360000 </v>
   <v>      -0.08333000      -0.08333000       0.46360000 </v>
   <v>      -0.33333000      -0.08333000       0.46360000 </v>
   <v>      -0.49943430       0.25220483      -0.46235487 </v>
   <v>      -0.25434937       0.25257297      -0.46191537 </v>
   <v>       0.08260975       0.33384429      -0.39110713 </v>
   <v>       0.41667000      -0.33333000       0.46360000 </v>
   <v>       0.32672308       0.33478154      -0.39125517 </v>
   <v>       0.24980554      -0.24953124      -0.46475428 </v>
   <v>      -0.16293413       0.33472168      -0.39100833 </v>
   <v>       0.49955578      -0.24981378      -0.46471152 </v>
   <v>       0.08260699       0.08451868      -0.39106805 </v>
   <v>       0.33224144       0.08424246      -0.39099493 </v>
   <v>       0.08092425      -0.41467500      -0.39106978 </v>
   <v>      -0.16714051      -0.41484081      -0.39104491 </v>
   <v>      -0.49983673       0.49905522      -0.46276519 </v>
   <v>      -0.25044512       0.00058008      -0.46426113 </v>
   <v>       0.33206301      -0.16480189      -0.39112721 </v>
   <v>       0.32651076      -0.40981388      -0.39152112 </v>
   <v>      -0.41764337       0.08014347      -0.39125456 </v>
   <v>      -0.41743488      -0.41030150      -0.39137360 </v>
   <v>      -0.16378657       0.08030464      -0.39093617 </v>
   <v>      -0.16739885      -0.16601721      -0.39099260 </v>
   <v>      -0.41822442      -0.16511124      -0.39109434 </v>
   <v>       0.08218648      -0.16473064      -0.39112424 </v>
   <v>      -0.41780204       0.33511270      -0.38524280 </v>
   <v>      -0.44166180       0.35952235      -0.32737510 </v>
   <v>      -0.45822515       0.37748923      -0.29102159 </v>
  </varray>
 </structure>
 <varray name="primitive_index" >
  <v type="int" >        1 </v>
  <v type="int" >        7 </v>
  <v type="int" >       38 </v>
  <v type="int" >        8 </v>
  <v type="int" >        4 </v>
  <v type="int" >       52 </v>
  <v type="int" >        3 </v>
  <v type="int" >       35 </v>
  <v type="int" >        2 </v>
  <v type="int" >       18 </v>
  <v type="int" >       37 </v>
  <v type="int" >        5 </v>
  <v type="int" >       53 </v>
  <v type="int" >       10 </v>
  <v type="int" >       44 </v>
  <v type="int" >       59 </v>
  <v type="int" >       24 </v>
  <v type="int" >       40 </v>
  <v type="int" >       22 </v>
  <v type="int" >       55 </v>
  <v type="int" >       19 </v>
  <v type="int" >       50 </v>
  <v type="int" >       34 </v>
  <v type="int" >       36 </v>
  <v type="int" >       20 </v>
  <v type="int" >       51 </v>
  <v type="int" >       23 </v>
  <v type="int" >        6 </v>
  <v type="int" >        9 </v>
  <v type="int" >       25 </v>
  <v type="int" >       57 </v>
  <v type="int" >       17 </v>
  <v type="int" >       33 </v>
  <v type="int" >       49 </v>
  <v type="int" >       11 </v>
  <v type="int" >       43 </v>
  <v type="int" >       60 </v>
  <v type="int" >       58 </v>
  <v type="int" >       39 </v>
  <v type="int" >       54 </v>
  <v type="int" >       56 </v>
  <v type="int" >       12 </v>
  <v type="int" >       42 </v>
  <v type="int" >       13 </v>
  <v type="int" >       21 </v>
  <v type="int" >       15 </v>
  <v type="int" >       26 </v>
  <v type="int" >       47 </v>
  <v type="int" >       28 </v>
  <v type="int" >       14 </v>
  <v type="int" >       16 </v>
  <v type="int" >       30 </v>
  <v type="int" >       64 </v>
  <v type="int" >       27 </v>
  <v type="int" >       41 </v>
  <v type="int" >       31 </v>
  <v type="int" >       32 </v>
  <v type="int" >       46 </v>
  <v type="int" >       62 </v>
  <v type="int" >       48 </v>
  <v type="int" >       63 </v>
  <v type="int" >       61 </v>
  <v type="int" >       29 </v>
  <v type="int" >       45 </v>
  <v type="int" >       66 </v>
  <v type="int" >       65 </v>
 </varray>
 <kpoints>
  <generation param="Gamma">
   <v type="int" name="divisions">       4        4        1 </v>
   <v name="usershift">      0.00000000       0.00000000       0.00000000 </v>
   <v name="genvec1">      0.25000000      -0.00000000       0.00000000 </v>
   <v name="genvec2">      0.00000000       0.25000000       0.00000000 </v>
   <v name="genvec3">      0.00000000       0.00000000       1.00000000 </v>
   <v name="shift">      0.00000000       0.00000000       0.00000000 </v>
  </generation>
  <varray name="kpointlist" >
   <v>       0.00000000       0.00000000       0.00000000 </v>
   <v>       0.25000000       0.00000000       0.00000000 </v>
   <v>       0.50000000       0.00000000       0.00000000 </v>
   <v>       0.00000000       0.25000000       0.00000000 </v>
   <v>       0.25000000       0.25000000       0.00000000 </v>
   <v>       0.50000000       0.25000000       0.00000000 </v>
   <v>      -0.25000000       0.25000000       0.00000000 </v>
   <v>       0.00000000       0.50000000       0.00000000 </v>
   <v>       0.25000000       0.50000000       0.00000000 </v>
   <v>       0.50000000       0.50000000       0.00000000 </v>
  </varray>
  <varray name="weights" >
   <v>       0.06250000 </v>
   <v>       0.12500000 </v>
   <v>       0.06250000 </v>
   <v>       0.12500000 </v>
   <v>       0.12500000 </v>
   <v>       0.12500000 </v>
   <v>       0.12500000 </v>
   <v>       0.06250000 </v>
   <v>       0.12500000 </v>
   <v>       0.06250000 </v>
  </varray>
 </kpoints>
 <parameters>
  <separator name="general" >
   <i type="string" name="SYSTEM">Pt</i>
   <i type="logical" name="LCOMPAT"> F  </i>
  </separator>
  <separator name="electronic" >
   <i type="string" name="PREC">med</i>
   <i name="ENMAX">    400.00000000</i>
   <i name="ENAUG">    644.87300000</i>
   <i name="EDIFF">      0.00001000</i>
   <i type="int" name="IALGO">    68</i>
   <i type="int" name="IWAVPR">    11</i>
   <i type="int" name="NBANDS">   392</i>
   <i name="NELECT">    650.00000000</i>
   <i type="int" name="TURBO">     0</i>
   <i type="int" name="IRESTART">     0</i>
   <i type="int" name="NREBOOT">     0</i>
   <i type="int" name="NMIN">     0</i>
   <i name="EREF">      0.00000000</i>
   <separator name="electronic smearing" >
    <i type="int" name="ISMEAR">     1</i>
    <i name="SIGMA">      0.10000000</i>
    <i name="KSPACING">      0.50000000</i>
    <i type="logical" name="KGAMMA"> T  </i>
   </separator>
   <separator name="electronic projectors" >
    <i type="logical" name="LREAL"> T  </i>
    <v name="ROPT">     -0.00200000     -0.00200000     -0.00200000</v>
    <i type="int" name="LMAXPAW">  -100</i>
    <i type="int" name="LMAXMIX">     2</i>
    <i type="logical" name="NLSPLINE"> F  </i>
   </separator>
   <separator name="electronic startup" >
    <i type="int" name="ISTART">     0</i>
    <i type="int" name="ICHARG">     2</i>
    <i type="int" name="INIWAV">     1</i>
   </separator>
   <separator name="electronic spin" >
    <i type="int" name="ISPIN">     1</i>
    <i type="logical" name="LNONCOLLINEAR"> F  </i>
    <v name="MAGMOM">      1.00000000      1.00000000      1.00000000      1.00000000      1.00000000      1.00000000      1.00000000      1.00000000      1.00000000      1.00000000      1.00000000      1.00000000      1.00000000      1.00000000      1.00000000      1.00000000      1.00000000      1.00000000      1.00000000      1.00000000
      1.00000000      1.00000000      1.00000000      1.00000000      1.00000000      1.00000000      1.00000000      1.00000000      1.00000000      1.00000000      1.00000000      1.00000000      1.00000000      1.00000000      1.00000000      1.00000000      1.00000000      1.00000000      1.00000000      1.00000000
      1.00000000      1.00000000      1.00000000      1.00000000      1.00000000      1.00000000      1.00000000      1.00000000      1.00000000      1.00000000      1.00000000      1.00000000      1.00000000      1.00000000      1.00000000      1.00000000      1.00000000      1.00000000      1.00000000      1.00000000
      1.00000000      1.00000000      1.00000000      1.00000000      1.00000000      1.00000000</v>
    <i name="NUPDOWN">     -1.00000000</i>
    <i type="logical" name="LSORBIT"> F  </i>
    <v name="SAXIS">      0.00000000      0.00000000      1.00000000</v>
    <i type="logical" name="LSPIRAL"> F  </i>
    <v name="QSPIRAL">      0.00000000      0.00000000      0.00000000</v>
    <i type="logical" name="LZEROZ"> F  </i>
   </separator>
   <separator name="electronic exchange-correlation" >
    <i type="logical" name="LASPH"> F  </i>
    <i type="logical" name="LMETAGGA"> F  </i>
   </separator>
   <separator name="electronic convergence" >
    <i type="int" name="NELM">   100</i>
    <i type="int" name="NELMDL">    -5</i>
    <i type="int" name="NELMIN">     2</i>
    <i name="ENINI">    400.00000000</i>
    <separator name="electronic convergence detail" >
     <i type="logical" name="LDIAG"> T  </i>
     <i type="logical" name="LSUBROT"> F  </i>
     <i name="WEIMIN">      0.00100000</i>
     <i name="EBREAK">      0.00000001</i>
     <i name="DEPER">      0.30000000</i>
     <i type="int" name="NRMM">     4</i>
     <i name="TIME">      0.40000000</i>
    </separator>
   </separator>
   <separator name="electronic mixer" >
    <i name="AMIX">      0.40000000</i>
    <i name="BMIX">      1.00000000</i>
    <i name="AMIN">      0.10000000</i>
    <i name="AMIX_MAG">      1.60000000</i>
    <i name="BMIX_MAG">      1.00000000</i>
    <separator name="electronic mixer details" >
     <i type="int" name="IMIX">     4</i>
     <i type="logical" name="MIXFIRST"> F  </i>
     <i type="int" name="MAXMIX">   -45</i>
     <i name="WC">    100.00000000</i>
     <i type="int" name="INIMIX">     1</i>
     <i type="int" name="MIXPRE">     1</i>
     <i type="int" name="MREMOVE">     5</i>
    </separator>
   </separator>
   <separator name="electronic dipolcorrection" >
    <i type="logical" name="LDIPOL"> F  </i>
    <i type="logical" name="LMONO"> F  </i>
    <i type="int" name="IDIPOL">     0</i>
    <i name="EPSILON">      1.00000000</i>
    <v name="DIPOL">   -100.00000000   -100.00000000   -100.00000000</v>
    <i name="EFIELD">      0.00000000</i>
   </separator>
  </separator>
  <separator name="grids" >
   <i type="int" name="NGX">    56</i>
   <i type="int" name="NGY">    56</i>
   <i type="int" name="NGZ">   160</i>
   <i type="int" name="NGXF">    96</i>
   <i type="int" name="NGYF">    96</i>
   <i type="int" name="NGZF">   270</i>
   <i type="logical" name="ADDGRID"> F  </i>
  </separator>
  <separator name="ionic" >
   <i type="int" name="NSW">   829</i>
   <i type="int" name="IBRION">     5</i>
   <i type="int" name="MDALGO">     0</i>
   <i type="int" name="ISIF">     1</i>
   <i name="PSTRESS">      0.00000000</i>
   <i name="EDIFFG">      0.00010000</i>
   <i type="int" name="NFREE">     2</i>
   <i name="POTIM">      0.01500000</i>
   <i name="SMASS">     -3.00000000</i>
   <i name="SCALEE">      1.00000000</i>
  </separator>
  <separator name="ionic md" >
   <i name="TEBEG">      0.00010000</i>
   <i name="TEEND">      0.00010000</i>
   <i type="int" name="NBLOCK">     1</i>
   <i type="int" name="KBLOCK">   829</i>
   <i type="int" name="NPACO">   256</i>
   <i name="APACO">     16.00000000</i>
  </separator>
  <separator name="symmetry" >
   <i type="int" name="ISYM">     0</i>
   <i name="SYMPREC">      0.00001000</i>
  </separator>
  <separator name="dos" >
   <i type="int" name="LORBIT">     0</i>
   <v name="RWIGS">     -1.00000000     -1.00000000     -1.00000000</v>
   <i type="int" name="NEDOS">   301</i>
   <i name="EMIN">     10.00000000</i>
   <i name="EMAX">    -10.00000000</i>
   <i name="EFERMI">      0.00000000</i>
  </separator>
  <separator name="writing" >
   <i type="int" name="NWRITE">     2</i>
   <i type="logical" name="LWAVE"> F  </i>
   <i type="logical" name="LDOWNSAMPLE"> F  </i>
   <i type="logical" name="LCHARG"> F  </i>
   <i type="logical" name="LPARD"> F  </i>
   <i type="logical" name="LVTOT"> F  </i>
   <i type="logical" name="LVHAR"> F  </i>
   <i type="logical" name="LELF"> F  </i>
   <i type="logical" name="LOPTICS"> F  </i>
   <v name="STM">      0.00000000      0.00000000      0.00000000      0.00000000      0.00000000      0.00000000      0.00000000</v>
  </separator>
  <separator name="performance" >
   <i type="int" name="NPAR">     4</i>
   <i type="int" name="NSIM">     4</i>
   <i type="int" name="NBLK">    -1</i>
   <i type="logical" name="LPLANE"> T  </i>
   <i type="logical" name="LSCALAPACK"> T  </i>
   <i type="logical" name="LSCAAWARE"> F  </i>
   <i type="logical" name="LSCALU"> F  </i>
   <i type="logical" name="LASYNC"> F  </i>
   <i type="logical" name="LORBITALREAL"> F  </i>
  </separator>
  <separator name="miscellaneous" >
   <i type="int" name="IDIOT">     3</i>
   <i type="int" name="ISPECIAL">     0</i>
   <i type="logical" name="LMUSIC"> F  </i>
   <v name="POMASS">    195.08000000     16.00000000     12.01100000</v>
   <v name="DARWINR">      0.00000000      0.00000000      0.00000000</v>
   <v name="DARWINV">      1.00000000      1.00000000      1.00000000</v>
   <i type="logical" name="LCORR"> T  </i>
  </separator>
  <i type="logical" name="GGA_COMPAT"> T  </i>
  <i type="logical" name="LBERRY"> F  </i>
  <i type="int" name="ICORELEVEL">     0</i>
  <i type="logical" name="LDAU"> F  </i>
  <i type="int" name="I_CONSTRAINED_M">     0</i>
  <separator name="electronic exchange-correlation" >
   <i type="string" name="GGA">--</i>
   <i type="int" name="VOSKOWN">     0</i>
   <i type="logical" name="LHFCALC"> F  </i>
   <i type="string" name="PRECFOCK"></i>
   <i type="logical" name="LSYMGRAD"> F  </i>
   <i type="logical" name="LHFONE"> F  </i>
   <i type="logical" name="LRHFCALC"> F  </i>
   <i type="logical" name="LTHOMAS"> F  </i>
   <i type="logical" name="LMODELHF"> F  </i>
   <i name="ENCUT4O">     -1.00000000</i>
   <i type="int" name="EXXOEP">     0</i>
   <i type="int" name="FOURORBIT">     0</i>
   <i name="AEXX">      0.00000000</i>
   <i name="HFALPHA">      0.00000000</i>
   <i name="MCALPHA">      0.00000000</i>
   <i name="ALDAX">      1.00000000</i>
   <i name="AGGAX">      1.00000000</i>
   <i name="ALDAC">      1.00000000</i>
   <i name="AGGAC">      1.00000000</i>
   <i type="int" name="NKREDX">     1</i>
   <i type="int" name="NKREDY">     1</i>
   <i type="int" name="NKREDZ">     1</i>
   <i type="logical" name="SHIFTRED"> F  </i>
   <i type="logical" name="ODDONLY"> F  </i>
   <i type="logical" name="EVENONLY"> F  </i>
   <i type="int" name="LMAXFOCK">     0</i>
   <i type="int" name="NMAXFOCKAE">     0</i>
   <i type="logical" name="LFOCKAEDFT"> F  </i>
   <i name="HFSCREEN">      0.00000000</i>
   <i name="HFSCREENC">      0.00000000</i>
   <i type="int" name="NBANDSGWLOW">     0</i>
  </separator>
  <separator name="vdW DFT" >
   <i type="logical" name="LUSE_VDW"> F  </i>
   <i name="Zab_VDW">     -0.84910000</i>
   <i name="PARAM1">      0.12340000</i>
   <i name="PARAM2">      1.00000000</i>
   <i name="PARAM3">      0.00000000</i>
  </separator>
  <separator name="model GW" >
   <i type="int" name="MODEL_GW">     0</i>
   <i name="MODEL_EPS0">     31.13507510</i>
   <i name="MODEL_ALPHA">      1.00000000</i>
  </separator>
  <separator name="linear response parameters" >
   <i type="logical" name="LEPSILON"> F  </i>
   <i type="logical" name="LRPA"> F  </i>
   <i type="logical" name="LNABLA"> F  </i>
   <i type="logical" name="LVEL"> F  </i>
   <i type="int" name="KINTER">     0</i>
   <i name="CSHIFT">      0.10000000</i>
   <i name="OMEGAMAX">     -1.00000000</i>
   <i name="DEG_THRESHOLD">      0.00200000</i>
   <i name="RTIME">     -0.10000000</i>
   <i name="WPLASMAI">      0.00000000</i>
   <v name="DFIELD">      0.00000000      0.00000000      0.00000000</v>
   <v name="WPLASMA">      0.00000000      0.00000000      0.00000000      0.00000000      0.00000000      0.00000000      0.00000000      0.00000000      0.00000000</v>
  </separator>
  <separator name="orbital magnetization" >
   <i type="logical" name="NUCIND"> F  </i>
   <v name="MAGPOS">      0.00000000      0.00000000      0.00000000</v>
   <i type="logical" name="LNICSALL"> T  </i>
   <i type="logical" name="ORBITALMAG"> F  </i>
   <i type="logical" name="LMAGBLOCH"> F  </i>
   <i type="logical" name="LCHIMAG"> F  </i>
   <i type="logical" name="LGAUGE"> T  </i>
   <i type="int" name="MAGATOM">     0</i>
   <v name="MAGDIPOL">      0.00000000      0.00000000      0.00000000</v>
   <v name="AVECCONST">      0.00000000      0.00000000      0.00000000</v>
  </separator>
  <separator name="response functions" >
   <i type="logical" name="LADDER"> F  </i>
   <i type="logical" name="LRPAFORCE"> F  </i>
   <i type="logical" name="LFXC"> F  </i>
   <i type="logical" name="LHARTREE"> T  </i>
   <i type="int" name="IBSE">     0</i>
   <v type="int" name="KPOINT">    -1     0     0     0</v>
   <i type="logical" name="LTCTE"> F  </i>
   <i type="logical" name="LTETE"> F  </i>
   <i type="logical" name="LTRIPLET"> F  </i>
   <i type="logical" name="LFXCEPS"> F  </i>
   <i type="logical" name="LFXHEG"> F  </i>
   <i type="int" name="NATURALO">     2</i>
   <i type="logical" name="L2ORDER"> F  </i>
   <i type="logical" name="LMP2LT"> F  </i>
   <i type="logical" name="LUSEW"> F  </i>
   <i name="ENCUTGW">     -2.00000000</i>
   <i name="ENCUTGWSOFT">     -2.00000000</i>
   <i name="ENCUTLF">     -1.00000000</i>
   <i type="int" name="LMAXMP2">    -1</i>
   <i name="SCISSOR">      0.00000000</i>
   <i type="int" name="NOMEGA">     0</i>
   <i type="int" name="NOMEGAR">     0</i>
   <i type="int" name="NBANDSGW">    -1</i>
   <i type="int" name="NBANDSO">    -1</i>
   <i type="int" name="NBANDSV">    -1</i>
   <i type="int" name="NELM">   100</i>
   <i type="int" name="NELMHF">     1</i>
   <i type="int" name="DIM">     3</i>
   <i type="int" name="ANTIRES">     0</i>
   <i name="OMEGAMAX">    -30.00000000</i>
   <i name="OMEGAMIN">    -30.00000000</i>
   <i name="OMEGATL">   -200.00000000</i>
   <i type="int" name="OMEGAGRID">   140</i>
   <i name="CSHIFT">     -0.10000000</i>
   <i type="logical" name="SELFENERGY"> F  </i>
   <i type="logical" name="LSPECTRAL"> F  </i>
   <i type="logical" name="LSPECTRALGW"> F  </i>
   <i type="logical" name="LSINGLES"> F  </i>
   <i type="logical" name="LFERMIGW"> F  </i>
   <i type="logical" name="ODDONLYGW"> F  </i>
   <i type="logical" name="EVENONLYGW"> F  </i>
   <i type="int" name="NKREDLFX">     1</i>
   <i type="int" name="NKREDLFY">     1</i>
   <i type="int" name="NKREDLFZ">     1</i>
   <i type="int" name="MAXMEM">  2800</i>
   <i type="int" name="TELESCOPE">     0</i>
   <i type="int" name="TAUPAR">     1</i>
   <i type="int" name="OMEGAPAR">    -1</i>
   <i name="LAMBDA">      1.00000000</i>
  </separator>
  <separator name="External order field" >
   <i name="OFIELD_KAPPA">      0.00000000</i>
   <v name="OFIELD_K">      0.00000000      0.00000000      0.00000000</v>
   <i name="OFIELD_Q6_NEAR">      0.00000000</i>
   <i name="OFIELD_Q6_FAR">      0.00000000</i>
   <i name="OFIELD_A">      0.00000000</i>
  </separator>
 </parameters>
 <atominfo>
  <atoms>      66 </atoms>
  <types>       3 </types>
  <array name="atoms" >
   <dimension dim="1">ion</dimension>
   <field type="string">element</field>
   <field type="int">atomtype</field>
   <set>
    <rc><c>Pt</c><c>   1</c></rc>
    <rc><c>Pt</c><c>   1</c></rc>
    <rc><c>Pt</c><c>   1</c></rc>
    <rc><c>Pt</c><c>   1</c></rc>
    <rc><c>Pt</c><c>   1</c></rc>
    <rc><c>Pt</c><c>   1</c></rc>
    <rc><c>Pt</c><c>   1</c></rc>
    <rc><c>Pt</c><c>   1</c></rc>
    <rc><c>Pt</c><c>   1</c></rc>
    <rc><c>Pt</c><c>   1</c></rc>
    <rc><c>Pt</c><c>   1</c></rc>
    <rc><c>Pt</c><c>   1</c></rc>
    <rc><c>Pt</c><c>   1</c></rc>
    <rc><c>Pt</c><c>   1</c></rc>
    <rc><c>Pt</c><c>   1</c></rc>
    <rc><c>Pt</c><c>   1</c></rc>
    <rc><c>Pt</c><c>   1</c></rc>
    <rc><c>Pt</c><c>   1</c></rc>
    <rc><c>Pt</c><c>   1</c></rc>
    <rc><c>Pt</c><c>   1</c></rc>
    <rc><c>Pt</c><c>   1</c></rc>
    <rc><c>Pt</c><c>   1</c></rc>
    <rc><c>Pt</c><c>   1</c></rc>
    <rc><c>Pt</c><c>   1</c></rc>
    <rc><c>Pt</c><c>   1</c></rc>
    <rc><c>Pt</c><c>   1</c></rc>
    <rc><c>Pt</c><c>   1</c></rc>
    <rc><c>Pt</c><c>   1</c></rc>
    <rc><c>Pt</c><c>   1</c></rc>
    <rc><c>Pt</c><c>   1</c></rc>
    <rc><c>Pt</c><c>   1</c></rc>
    <rc><c>Pt</c><c>   1</c></rc>
    <rc><c>Pt</c><c>   1</c></rc>
    <rc><c>Pt</c><c>   1</c></rc>
    <rc><c>Pt</c><c>   1</c></rc>
    <rc><c>Pt</c><c>   1</c></rc>
    <rc><c>Pt</c><c>   1</c></rc>
    <rc><c>Pt</c><c>   1</c></rc>
    <rc><c>Pt</c><c>   1</c></rc>
    <rc><c>Pt</c><c>   1</c></rc>
    <rc><c>Pt</c><c>   1</c></rc>
    <rc><c>Pt</c><c>   1</c></rc>
    <rc><c>Pt</c><c>   1</c></rc>
    <rc><c>Pt</c><c>   1</c></rc>
    <rc><c>Pt</c><c>   1</c></rc>
    <rc><c>Pt</c><c>   1</c></rc>
    <rc><c>Pt</c><c>   1</c></rc>
    <rc><c>Pt</c><c>   1</c></rc>
    <rc><c>Pt</c><c>   1</c></rc>
    <rc><c>Pt</c><c>   1</c></rc>
    <rc><c>Pt</c><c>   1</c></rc>
    <rc><c>Pt</c><c>   1</c></rc>
    <rc><c>Pt</c><c>   1</c></rc>
    <rc><c>Pt</c><c>   1</c></rc>
    <rc><c>Pt</c><c>   1</c></rc>
    <rc><c>Pt</c><c>   1</c></rc>
    <rc><c>Pt</c><c>   1</c></rc>
    <rc><c>Pt</c><c>   1</c></rc>
    <rc><c>Pt</c><c>   1</c></rc>
    <rc><c>Pt</c><c>   1</c></rc>
    <rc><c>Pt</c><c>   1</c></rc>
    <rc><c>Pt</c><c>   1</c></rc>
    <rc><c>Pt</c><c>   1</c></rc>
    <rc><c>Pt</c><c>   1</c></rc>
    <rc><c>O </c><c>   2</c></rc>
    <rc><c>C </c><c>   3</c></rc>
   </set>
  </array>
  <array name="atomtypes" >
   <dimension dim="1">type</dimension>
   <field type="int">atomspertype</field>
   <field type="string">element</field>
   <field>mass</field>
   <field>valence</field>
   <field type="string">pseudopotential</field>
   <set>
    <rc><c>  64</c><c>Pt</c><c>    195.08000000</c><c>     10.00000000</c><c>  PAW_PBE Pt 04Feb2005                  </c></rc>
    <rc><c>   1</c><c>O </c><c>     16.00000000</c><c>      6.00000000</c><c>  PAW_PBE O 08Apr2002                   </c></rc>
    <rc><c>   1</c><c>C </c><c>     12.01100000</c><c>      4.00000000</c><c>  PAW_PBE C 08Apr2002                   </c></rc>
   </set>
  </array>
 </atominfo>
 <structure name="initialpos" >
  <crystal>
   <varray name="basis" >
    <v>      11.21440000       0.00000000       0.00000000 </v>
    <v>       5.60720000       9.71195529       0.00000000 </v>
    <v>       0.00000000       0.00000000      31.44560000 </v>
   </varray>
   <i name="volume">   3424.85826052 </i>
   <varray name="rec_basis" >
    <v>       0.08917107      -0.05148294       0.00000000 </v>
    <v>       0.00000000       0.10296588       0.00000000 </v>
    <v>       0.00000000       0.00000000       0.03180095 </v>
   </varray>
  </crystal>
  <varray name="positions" >
   <v>       0.08333000       0.33333000       0.39081000 </v>
   <v>       0.08333000       0.08333000       0.39081000 </v>
   <v>       0.33333000       0.33333000       0.39081000 </v>
   <v>       0.33333000       0.08333000       0.39081000 </v>
   <v>       0.41667000       0.16667000       0.46360000 </v>
   <v>       0.41667000       0.41667000       0.46360000 </v>
   <v>       0.16667000       0.16667000       0.46360000 </v>
   <v>       0.16667000       0.41667000       0.46360000 </v>
   <v>       0.24951926       0.00055800       0.53568836 </v>
   <v>       0.25027000       0.25008522       0.53529254 </v>
   <v>       0.49956672       0.00097941       0.53535813 </v>
   <v>       0.50056570       0.25220483       0.53764513 </v>
   <v>       0.08260975       0.33384429       0.60889287 </v>
   <v>       0.08260699       0.08451868       0.60893195 </v>
   <v>       0.32672308       0.33478154       0.60874483 </v>
   <v>       0.33224144       0.08424246       0.60900507 </v>
   <v>       0.08333000       0.83333000       0.39081000 </v>
   <v>       0.08333000       0.58333000       0.39081000 </v>
   <v>       0.33333000       0.83333000       0.39081000 </v>
   <v>       0.33333000       0.58333000       0.39081000 </v>
   <v>       0.41667000       0.66667000       0.46360000 </v>
   <v>       0.41667000       0.91667000       0.46360000 </v>
   <v>       0.16667000       0.66667000       0.46360000 </v>
   <v>       0.16667000       0.91667000       0.46360000 </v>
   <v>       0.24958714       0.50038431       0.53571004 </v>
   <v>       0.24980554       0.75046876       0.53524572 </v>
   <v>       0.50016327       0.49905522       0.53723481 </v>
   <v>       0.49955578       0.75018622       0.53528848 </v>
   <v>       0.08218648       0.83526936       0.60887576 </v>
   <v>       0.08092425       0.58532500       0.60893022 </v>
   <v>       0.33206301       0.83519811       0.60887279 </v>
   <v>       0.32651076       0.59018612       0.60847888 </v>
   <v>       0.58333000       0.33333000       0.39081000 </v>
   <v>       0.58333000       0.08333000       0.39081000 </v>
   <v>       0.83333000       0.33333000       0.39081000 </v>
   <v>       0.83333000       0.08333000       0.39081000 </v>
   <v>       0.91667000       0.16667000       0.46360000 </v>
   <v>       0.91667000       0.41667000       0.46360000 </v>
   <v>       0.66667000       0.16667000       0.46360000 </v>
   <v>       0.66667000       0.41667000       0.46360000 </v>
   <v>       0.74955488       0.00058008       0.53573887 </v>
   <v>       0.74565063       0.25257297       0.53808463 </v>
   <v>       0.99858285       0.00156174       0.53543602 </v>
   <v>       0.99880404       0.25035481       0.53534963 </v>
   <v>       0.58219796       0.33511270       0.61475720 </v>
   <v>       0.58235663       0.08014347       0.60874544 </v>
   <v>       0.83706587       0.33472168       0.60899167 </v>
   <v>       0.83621343       0.08030464       0.60906383 </v>
   <v>       0.58333000       0.83333000       0.39081000 </v>
   <v>       0.58333000       0.58333000       0.39081000 </v>
   <v>       0.83333000       0.83333000       0.39081000 </v>
   <v>       0.83333000       0.58333000       0.39081000 </v>
   <v>       0.91667000       0.66667000       0.46360000 </v>
   <v>       0.91667000       0.91667000       0.46360000 </v>
   <v>       0.66667000       0.66667000       0.46360000 </v>
   <v>       0.66667000       0.91667000       0.46360000 </v>
   <v>       0.74961313       0.50030510       0.53576719 </v>
   <v>       0.74955029       0.75044470       0.53567530 </v>
   <v>       0.99989307       0.50000806       0.53566813 </v>
   <v>       0.99964364       0.75056571       0.53563828 </v>
   <v>       0.58177558       0.83488876       0.60890566 </v>
   <v>       0.58256512       0.58969850       0.60862640 </v>
   <v>       0.83260115       0.83398279       0.60900740 </v>
   <v>       0.83285949       0.58515919       0.60895509 </v>
   <v>       0.54177485       0.37748923       0.70897841 </v>
   <v>       0.55833820       0.35952235       0.67262490 </v>
  </varray>
  <varray name="selective"  type="logical" >
   <v type="logical" >  F  F  F </v>
   <v type="logical" >  F  F  F </v>
   <v type="logical" >  F  F  F </v>
   <v type="logical" >  F  F  F </v>
   <v type="logical" >  F  F  F </v>
   <v type="logical" >  F  F  F </v>
   <v type="logical" >  F  F  F </v>
   <v type="logical" >  F  F  F </v>
   <v type="logical" >  F  F  F </v>
   <v type="logical" >  F  F  F </v>
   <v type="logical" >  F  F  F </v>
   <v type="logical" >  F  F  F </v>
   <v type="logical" >  F  F  F </v>
   <v type="logical" >  F  F  F </v>
   <v type="logical" >  F  F  F </v>
   <v type="logical" >  F  F  F </v>
   <v type="logical" >  F  F  F </v>
   <v type="logical" >  F  F  F </v>
   <v type="logical" >  F  F  F </v>
   <v type="logical" >  F  F  F </v>
   <v type="logical" >  F  F  F </v>
   <v type="logical" >  F  F  F </v>
   <v type="logical" >  F  F  F </v>
   <v type="logical" >  F  F  F </v>
   <v type="logical" >  F  F  F </v>
   <v type="logical" >  F  F  F </v>
   <v type="logical" >  F  F  F </v>
   <v type="logical" >  F  F  F </v>
   <v type="logical" >  F  F  F </v>
   <v type="logical" >  F  F  F </v>
   <v type="logical" >  F  F  F </v>
   <v type="logical" >  F  F  F </v>
   <v type="logical" >  F  F  F </v>
   <v type="logical" >  F  F  F </v>
   <v type="logical" >  F  F  F </v>
   <v type="logical" >  F  F  F </v>
   <v type="logical" >  F  F  F </v>
   <v type="logical" >  F  F  F </v>
   <v type="logical" >  F  F  F </v>
   <v type="logical" >  F  F  F </v>
   <v type="logical" >  F  F  F </v>
   <v type="logical" >  F  F  F </v>
   <v type="logical" >  F  F  F </v>
   <v type="logical" >  F  F  F </v>
   <v type="logical" >  F  F  F </v>
   <v type="logical" >  F  F  F </v>
   <v type="logical" >  F  F  F </v>
   <v type="logical" >  F  F  F </v>
   <v type="logical" >  F  F  F </v>
   <v type="logical" >  F  F  F </v>
   <v type="logical" >  F  F  F </v>
   <v type="logical" >  F  F  F </v>
   <v type="logical" >  F  F  F </v>
   <v type="logical" >  F  F  F </v>
   <v type="logical" >  F  F  F </v>
   <v type="logical" >  F  F  F </v>
   <v type="logical" >  F  F  F </v>
   <v type="logical" >  F  F  F </v>
   <v type="logical" >  F  F  F </v>
   <v type="logical" >  F  F  F </v>
   <v type="logical" >  F  F  F </v>
   <v type="logical" >  F  F  F </v>
   <v type="logical" >  F  F  F </v>
   <v type="logical" >  F  F  F </v>
   <v type="logical" >  T  T  T </v>
   <v type="logical" >  T  T  T </v>
  </varray>
  <nose>
   <v>      -3.00000000       0.00000000       0.00010000       0.00010000 </v>
  </nose>
 </structure>
 <calculation>
  <scstep>
   <time name="dav">   10.99   11.02</time>
   <time name="total">   11.02   11.07</time>
   <energy>
    <i name="alphaZ">   1162.91707422 </i>
    <i name="ewald"> 409517.05967866 </i>
    <i name="hartreedc">-458116.42656896 </i>
    <i name="XCdc">    255.92295635 </i>
    <i name="pawpsdc">  45006.97779067 </i>
    <i name="pawaedc"> -43199.21847856 </i>
    <i name="eentropy">     -0.00526169 </i>
    <i name="bandstr">   2382.56461745 </i>
    <i name="atom">  47242.55533565 </i>
    <i name="e_fr_energy">   4252.34714379 </i>
    <i name="e_wo_entrp">   4252.35240548 </i>
    <i name="e_0_energy">   4252.34889769 </i>
   </energy>
  </scstep>
  <scstep>
   <time name="dav">   13.05   13.09</time>
   <time name="total">   13.05   13.09</time>
   <energy>
    <i name="e_fr_energy">    -26.52771814 </i>
    <i name="e_wo_entrp">    -26.51948728 </i>
    <i name="e_0_energy">    -26.52497452 </i>
   </energy>
  </scstep>
  <scstep>
   <time name="dav">   12.14   12.17</time>
   <time name="total">   12.14   12.17</time>
   <energy>
    <i name="e_fr_energy">   -394.81675471 </i>
    <i name="e_wo_entrp">   -394.76435298 </i>
    <i name="e_0_energy">   -394.79928747 </i>
   </energy>
  </scstep>
  <scstep>
   <time name="dav">   13.96   14.00</time>
   <time name="total">   13.97   14.00</time>
   <energy>
    <i name="e_fr_energy">   -412.55108257 </i>
    <i name="e_wo_entrp">   -412.46933778 </i>
    <i name="e_0_energy">   -412.52383431 </i>
   </energy>
  </scstep>
  <scstep>
   <time name="dav">   13.71   13.74</time>
   <time name="total">   13.99   14.03</time>
   <energy>
    <i name="e_fr_energy">   -413.08102145 </i>
    <i name="e_wo_entrp">   -412.99842639 </i>
    <i name="e_0_energy">   -413.05348977 </i>
   </energy>
  </scstep>
  <scstep>
   <time name="diag">    1.55    1.56</time>
   <time name="diis">    4.90    4.92</time>
   <time name="orth">    0.49    0.49</time>
   <time name="total">    7.26    7.28</time>
   <energy>
    <i name="e_fr_energy">   -400.02398257 </i>
    <i name="e_wo_entrp">   -400.04448060 </i>
    <i name="e_0_energy">   -400.03081525 </i>
   </energy>
  </scstep>
  <scstep>
   <time name="diag">    1.54    1.55</time>
   <time name="diis">    4.88    4.89</time>
   <time name="orth">    0.49    0.49</time>
   <time name="total">    7.22    7.25</time>
   <energy>
    <i name="e_fr_energy">   -503.57691148 </i>
    <i name="e_wo_entrp">   -503.56291416 </i>
    <i name="e_0_energy">   -503.57224571 </i>
   </energy>
  </scstep>
  <scstep>
   <time name="diag">    1.55    1.55</time>
   <time name="diis">    4.80    4.81</time>
   <time name="orth">    0.49    0.49</time>
   <time name="total">    7.13    7.15</time>
   <energy>
    <i name="e_fr_energy">   -435.81937537 </i>
    <i name="e_wo_entrp">   -435.80865434 </i>
    <i name="e_0_energy">   -435.81580170 </i>
   </energy>
  </scstep>
  <scstep>
   <time name="diag">    1.55    1.55</time>
   <time name="diis">    4.79    4.80</time>
   <time name="orth">    0.49    0.49</time>
   <time name="total">    7.12    7.14</time>
   <energy>
    <i name="e_fr_energy">   -418.74286954 </i>
    <i name="e_wo_entrp">   -418.70731997 </i>
    <i name="e_0_energy">   -418.73101968 </i>
   </energy>
  </scstep>
  <scstep>
   <time name="diag">    1.55    1.55</time>
   <time name="diis">    4.81    4.82</time>
   <time name="orth">    0.49    0.49</time>
   <time name="total">    7.15    7.17</time>
   <energy>
    <i name="e_fr_energy">   -415.25159640 </i>
    <i name="e_wo_entrp">   -415.18396184 </i>
    <i name="e_0_energy">   -415.22905154 </i>
   </energy>
  </scstep>
  <scstep>
   <time name="diag">    1.56    1.56</time>
   <time name="diis">    4.80    4.82</time>
   <time name="orth">    0.48    0.48</time>
   <time name="total">    7.15    7.17</time>
   <energy>
    <i name="e_fr_energy">   -390.73269513 </i>
    <i name="e_wo_entrp">   -390.66111726 </i>
    <i name="e_0_energy">   -390.70883584 </i>
   </energy>
  </scstep>
  <scstep>
   <time name="diag">    1.55    1.55</time>
   <time name="diis">    4.80    4.81</time>
   <time name="orth">    0.49    0.49</time>
   <time name="total">    7.14    7.16</time>
   <energy>
    <i name="e_fr_energy">   -390.33979580 </i>
    <i name="e_wo_entrp">   -390.29970103 </i>
    <i name="e_0_energy">   -390.32643088 </i>
   </energy>
  </scstep>
  <scstep>
   <time name="diag">    1.55    1.56</time>
   <time name="diis">    4.83    4.84</time>
   <time name="orth">    0.49    0.49</time>
   <time name="total">    7.18    7.20</time>
   <energy>
    <i name="e_fr_energy">   -388.60824624 </i>
    <i name="e_wo_entrp">   -388.57020244 </i>
    <i name="e_0_energy">   -388.59556498 </i>
   </energy>
  </scstep>
  <scstep>
   <time name="diag">    1.55    1.56</time>
   <time name="diis">    4.83    4.85</time>
   <time name="orth">    0.49    0.49</time>
   <time name="total">    7.18    7.20</time>
   <energy>
    <i name="e_fr_energy">   -387.15853515 </i>
    <i name="e_wo_entrp">   -387.12418764 </i>
    <i name="e_0_energy">   -387.14708598 </i>
   </energy>
  </scstep>
  <scstep>
   <time name="diag">    1.55    1.55</time>
   <time name="diis">    4.83    4.85</time>
   <time name="orth">    0.49    0.49</time>
   <time name="total">    7.17    7.19</time>
   <energy>
    <i name="e_fr_energy">   -387.10848572 </i>
    <i name="e_wo_entrp">   -387.05019337 </i>
    <i name="e_0_energy">   -387.08905493 </i>
   </energy>
  </scstep>
  <scstep>
   <time name="diag">    1.55    1.56</time>
   <time name="diis">    4.88    4.89</time>
   <time name="orth">    0.49    0.49</time>
   <time name="total">    7.22    7.24</time>
   <energy>
    <i name="e_fr_energy">   -387.07897956 </i>
    <i name="e_wo_entrp">   -387.01630221 </i>
    <i name="e_0_energy">   -387.05808711 </i>
   </energy>
  </scstep>
  <scstep>
   <time name="diag">    1.56    1.56</time>
   <time name="diis">    4.85    4.86</time>
   <time name="orth">    0.49    0.49</time>
   <time name="total">    7.20    7.22</time>
   <energy>
    <i name="e_fr_energy">   -386.96840377 </i>
    <i name="e_wo_entrp">   -386.91322737 </i>
    <i name="e_0_energy">   -386.95001164 </i>
   </energy>
  </scstep>
  <scstep>
   <time name="diag">    1.55    1.56</time>
   <time name="diis">    4.86    4.88</time>
   <time name="orth">    0.49    0.49</time>
   <time name="total">    7.21    7.23</time>
   <energy>
    <i name="e_fr_energy">   -386.87512230 </i>
    <i name="e_wo_entrp">   -386.83600642 </i>
    <i name="e_0_energy">   -386.86208368 </i>
   </energy>
  </scstep>
  <scstep>
   <time name="diag">    1.56    1.56</time>
   <time name="diis">    4.86    4.87</time>
   <time name="orth">    0.49    0.49</time>
   <time name="total">    7.21    7.23</time>
   <energy>
    <i name="e_fr_energy">   -386.86632297 </i>
    <i name="e_wo_entrp">   -386.82731180 </i>
    <i name="e_0_energy">   -386.85331925 </i>
   </energy>
  </scstep>
  <scstep>
   <time name="diag">    1.55    1.56</time>
   <time name="diis">    4.86    4.87</time>
   <time name="orth">    0.49    0.49</time>
   <time name="total">    7.21    7.23</time>
   <energy>
    <i name="e_fr_energy">   -386.86376261 </i>
    <i name="e_wo_entrp">   -386.81969833 </i>
    <i name="e_0_energy">   -386.84907452 </i>
   </energy>
  </scstep>
  <scstep>
   <time name="diag">    1.55    1.56</time>
   <time name="diis">    4.85    4.86</time>
   <time name="orth">    0.49    0.49</time>
   <time name="total">    7.20    7.22</time>
   <energy>
    <i name="e_fr_energy">   -386.86342580 </i>
    <i name="e_wo_entrp">   -386.82072487 </i>
    <i name="e_0_energy">   -386.84919216 </i>
   </energy>
  </scstep>
  <scstep>
   <time name="diag">    1.56    1.56</time>
   <time name="diis">    4.90    4.91</time>
   <time name="orth">    0.49    0.49</time>
   <time name="total">    7.25    7.28</time>
   <energy>
    <i name="e_fr_energy">   -386.85759885 </i>
    <i name="e_wo_entrp">   -386.81630744 </i>
    <i name="e_0_energy">   -386.84383505 </i>
   </energy>
  </scstep>
  <scstep>
   <time name="diag">    1.56    1.56</time>
   <time name="diis">    4.88    4.89</time>
   <time name="orth">    0.49    0.49</time>
   <time name="total">    7.23    7.25</time>
   <energy>
    <i name="e_fr_energy">   -386.85318804 </i>
    <i name="e_wo_entrp">   -386.81352134 </i>
    <i name="e_0_energy">   -386.83996581 </i>
   </energy>
  </scstep>
  <scstep>
   <time name="diag">    1.56    1.56</time>
   <time name="diis">    4.87    4.88</time>
   <time name="orth">    0.49    0.49</time>
   <time name="total">    7.22    7.24</time>
   <energy>
    <i name="e_fr_energy">   -386.85086723 </i>
    <i name="e_wo_entrp">   -386.81217615 </i>
    <i name="e_0_energy">   -386.83797020 </i>
   </energy>
  </scstep>
  <scstep>
   <time name="diag">    1.56    1.56</time>
   <time name="diis">    4.87    4.89</time>
   <time name="orth">    0.49    0.49</time>
   <time name="total">    7.23    7.25</time>
   <energy>
    <i name="e_fr_energy">   -386.85048699 </i>
    <i name="e_wo_entrp">   -386.81162337 </i>
    <i name="e_0_energy">   -386.83753245 </i>
   </energy>
  </scstep>
  <scstep>
   <time name="diag">    1.55    1.56</time>
   <time name="diis">    4.91    4.92</time>
   <time name="orth">    0.49    0.49</time>
   <time name="total">    7.26    7.28</time>
   <energy>
    <i name="e_fr_energy">   -386.85045114 </i>
    <i name="e_wo_entrp">   -386.81180286 </i>
    <i name="e_0_energy">   -386.83756838 </i>
   </energy>
  </scstep>
  <scstep>
   <time name="diag">    1.56    1.56</time>
   <time name="diis">    4.82    4.84</time>
   <time name="orth">    0.49    0.49</time>
   <time name="total">    7.18    7.20</time>
   <energy>
    <i name="e_fr_energy">   -386.85011775 </i>
    <i name="e_wo_entrp">   -386.81192103 </i>
    <i name="e_0_energy">   -386.83738551 </i>
   </energy>
  </scstep>
  <scstep>
   <time name="diag">    1.56    1.56</time>
   <time name="diis">    4.67    4.68</time>
   <time name="orth">    0.49    0.49</time>
   <time name="total">    7.03    7.04</time>
   <energy>
    <i name="e_fr_energy">   -386.84984804 </i>
    <i name="e_wo_entrp">   -386.81189099 </i>
    <i name="e_0_energy">   -386.83719569 </i>
   </energy>
  </scstep>
  <scstep>
   <time name="diag">    1.56    1.56</time>
   <time name="diis">    4.60    4.61</time>
   <time name="orth">    0.49    0.49</time>
   <time name="total">    6.95    6.97</time>
   <energy>
    <i name="e_fr_energy">   -386.84974433 </i>
    <i name="e_wo_entrp">   -386.81200551 </i>
    <i name="e_0_energy">   -386.83716472 </i>
   </energy>
  </scstep>
  <scstep>
   <time name="diag">    1.56    1.57</time>
   <time name="diis">    3.04    3.05</time>
   <time name="orth">    0.49    0.49</time>
   <time name="total">    5.40    5.42</time>
   <energy>
    <i name="e_fr_energy">   -386.84980803 </i>
    <i name="e_wo_entrp">   -386.81200271 </i>
    <i name="e_0_energy">   -386.83720626 </i>
   </energy>
  </scstep>
  <scstep>
   <time name="diag">    1.55    1.56</time>
   <time name="diis">    2.81    2.82</time>
   <time name="orth">    0.49    0.49</time>
   <time name="total">    5.16    5.17</time>
   <energy>
    <i name="e_fr_energy">   -386.84986450 </i>
    <i name="e_wo_entrp">   -386.81197621 </i>
    <i name="e_0_energy">   -386.83723507 </i>
   </energy>
  </scstep>
  <scstep>
   <time name="diag">    1.55    1.56</time>
   <time name="diis">    2.78    2.79</time>
   <time name="orth">    0.49    0.49</time>
   <time name="total">    5.13    5.14</time>
   <energy>
    <i name="e_fr_energy">   -386.84989352 </i>
    <i name="e_wo_entrp">   -386.81197277 </i>
    <i name="e_0_energy">   -386.83725327 </i>
   </energy>
  </scstep>
  <scstep>
   <time name="diag">    1.55    1.56</time>
   <time name="diis">    2.81    2.82</time>
   <time name="orth">    0.49    0.49</time>
   <time name="total">    5.16    5.17</time>
   <energy>
    <i name="e_fr_energy">   -386.84996753 </i>
    <i name="e_wo_entrp">   -386.81200197 </i>
    <i name="e_0_energy">   -386.83731235 </i>
   </energy>
  </scstep>
  <scstep>
   <time name="diag">    1.56    1.56</time>
   <time name="diis">    2.73    2.74</time>
   <time name="orth">    0.49    0.49</time>
   <time name="total">    5.09    5.10</time>
   <energy>
    <i name="e_fr_energy">   -386.85002738 </i>
    <i name="e_wo_entrp">   -386.81206522 </i>
    <i name="e_0_energy">   -386.83737332 </i>
   </energy>
  </scstep>
  <scstep>
   <time name="diag">    1.56    1.56</time>
   <time name="diis">    2.42    2.43</time>
   <time name="orth">    0.49    0.49</time>
   <time name="total">    4.78    4.79</time>
   <energy>
    <i name="e_fr_energy">   -386.85007664 </i>
    <i name="e_wo_entrp">   -386.81209887 </i>
    <i name="e_0_energy">   -386.83741738 </i>
   </energy>
  </scstep>
  <scstep>
   <time name="diag">    1.55    1.56</time>
   <time name="diis">    2.37    2.38</time>
   <time name="orth">    0.49    0.49</time>
   <time name="total">    4.73    4.74</time>
   <energy>
    <i name="e_fr_energy">   -386.85011725 </i>
    <i name="e_wo_entrp">   -386.81213040 </i>
    <i name="e_0_energy">   -386.83745497 </i>
   </energy>
  </scstep>
  <scstep>
   <time name="diag">    1.56    1.56</time>
   <time name="diis">    2.43    2.44</time>
   <time name="orth">    0.49    0.49</time>
   <time name="total">    4.78    4.80</time>
   <energy>
    <i name="e_fr_energy">   -386.85015894 </i>
    <i name="e_wo_entrp">   -386.81217027 </i>
    <i name="e_0_energy">   -386.83749605 </i>
   </energy>
  </scstep>
  <scstep>
   <time name="diag">    1.56    1.56</time>
   <time name="diis">    2.59    2.59</time>
   <time name="orth">    0.49    0.49</time>
   <time name="total">    4.94    4.96</time>
   <energy>
    <i name="e_fr_energy">   -386.85021855 </i>
    <i name="e_wo_entrp">   -386.81221999 </i>
    <i name="e_0_energy">   -386.83755236 </i>
   </energy>
  </scstep>
  <scstep>
   <time name="diag">    1.56    1.56</time>
   <time name="diis">    2.25    2.25</time>
   <time name="orth">    0.49    0.49</time>
   <time name="total">    4.61    4.62</time>
   <energy>
    <i name="e_fr_energy">   -386.85024629 </i>
    <i name="e_wo_entrp">   -386.81224395 </i>
    <i name="e_0_energy">   -386.83757885 </i>
   </energy>
  </scstep>
  <scstep>
   <time name="diag">    1.55    1.56</time>
   <time name="diis">    2.47    2.48</time>
   <time name="orth">    0.49    0.49</time>
   <time name="total">    4.82    4.83</time>
   <energy>
    <i name="e_fr_energy">   -386.85028033 </i>
    <i name="e_wo_entrp">   -386.81227445 </i>
    <i name="e_0_energy">   -386.83761170 </i>
   </energy>
  </scstep>
  <scstep>
   <time name="diag">    1.55    1.56</time>
   <time name="diis">    2.01    2.02</time>
   <time name="orth">    0.49    0.49</time>
   <time name="total">    4.37    4.38</time>
   <energy>
    <i name="e_fr_energy">   -386.85029312 </i>
    <i name="e_wo_entrp">   -386.81228980 </i>
    <i name="e_0_energy">   -386.83762535 </i>
   </energy>
  </scstep>
  <scstep>
   <time name="diag">    1.56    1.57</time>
   <time name="diis">    2.08    2.08</time>
   <time name="orth">    0.49    0.49</time>
   <time name="total">    4.44    4.45</time>
   <energy>
    <i name="e_fr_energy">   -386.85030580 </i>
    <i name="e_wo_entrp">   -386.81231010 </i>
    <i name="e_0_energy">   -386.83764057 </i>
   </energy>
  </scstep>
  <scstep>
   <time name="diag">    1.56    1.56</time>
   <time name="diis">    1.95    1.95</time>
   <time name="orth">    0.49    0.49</time>
   <time name="total">    4.02    4.03</time>
   <energy>
    <i name="alphaZ">   1162.91707422 </i>
    <i name="ewald"> 409517.05967866 </i>
    <i name="hartreedc">-457486.45684982 </i>
    <i name="XCdc">    234.24376905 </i>
    <i name="pawpsdc">  57248.39736117 </i>
    <i name="pawaedc"> -55615.00079158 </i>
    <i name="eentropy">     -0.03798856 </i>
    <i name="bandstr">  -2690.52790085 </i>
    <i name="atom">  47242.55533565 </i>
    <i name="e_fr_energy">   -386.85031205 </i>
    <i name="e_wo_entrp">   -386.81232349 </i>
    <i name="e_0_energy">   -386.83764920 </i>
   </energy>
  </scstep>
  <structure>
   <crystal>
    <varray name="basis" >
     <v>      11.21440000       0.00000000       0.00000000 </v>
     <v>       5.60720000       9.71195529       0.00000000 </v>
     <v>       0.00000000       0.00000000      31.44560000 </v>
    </varray>
    <i name="volume">   3424.85826052 </i>
    <varray name="rec_basis" >
     <v>       0.08917107      -0.05148294       0.00000000 </v>
     <v>       0.00000000       0.10296588       0.00000000 </v>
     <v>       0.00000000       0.00000000       0.03180095 </v>
    </varray>
   </crystal>
   <varray name="positions" >
    <v>       0.08333000       0.33333000       0.39081000 </v>
    <v>       0.08333000       0.08333000       0.39081000 </v>
    <v>       0.33333000       0.33333000       0.39081000 </v>
    <v>       0.33333000       0.08333000       0.39081000 </v>
    <v>       0.41667000       0.16667000       0.46360000 </v>
    <v>       0.41667000       0.41667000       0.46360000 </v>
    <v>       0.16667000       0.16667000       0.46360000 </v>
    <v>       0.16667000       0.41667000       0.46360000 </v>
    <v>       0.24951926       0.00055800       0.53568836 </v>
    <v>       0.25027000       0.25008522       0.53529254 </v>
    <v>       0.49956672       0.00097941       0.53535813 </v>
    <v>       0.50056570       0.25220483       0.53764513 </v>
    <v>       0.08260975       0.33384429       0.60889287 </v>
    <v>       0.08260699       0.08451868       0.60893195 </v>
    <v>       0.32672308       0.33478154       0.60874483 </v>
    <v>       0.33224144       0.08424246       0.60900507 </v>
    <v>       0.08333000       0.83333000       0.39081000 </v>
    <v>       0.08333000       0.58333000       0.39081000 </v>
    <v>       0.33333000       0.83333000       0.39081000 </v>
    <v>       0.33333000       0.58333000       0.39081000 </v>
    <v>       0.41667000       0.66667000       0.46360000 </v>
    <v>       0.41667000       0.91667000       0.46360000 </v>
    <v>       0.16667000       0.66667000       0.46360000 </v>
    <v>       0.16667000       0.91667000       0.46360000 </v>
    <v>       0.24958714       0.50038431       0.53571004 </v>
    <v>       0.24980554       0.75046876       0.53524572 </v>
    <v>       0.50016327       0.49905522       0.53723481 </v>
    <v>       0.49955578       0.75018622       0.53528848 </v>
    <v>       0.08218648       0.83526936       0.60887576 </v>
    <v>       0.08092425       0.58532500       0.60893022 </v>
    <v>       0.33206301       0.83519811       0.60887279 </v>
    <v>       0.32651076       0.59018612       0.60847888 </v>
    <v>       0.58333000       0.33333000       0.39081000 </v>
    <v>       0.58333000       0.08333000       0.39081000 </v>
    <v>       0.83333000       0.33333000       0.39081000 </v>
    <v>       0.83333000       0.08333000       0.39081000 </v>
    <v>       0.91667000       0.16667000       0.46360000 </v>
    <v>       0.91667000       0.41667000       0.46360000 </v>
    <v>       0.66667000       0.16667000       0.46360000 </v>
    <v>       0.66667000       0.41667000       0.46360000 </v>
    <v>       0.74955488       0.00058008       0.53573887 </v>
    <v>       0.74565063       0.25257297       0.53808463 </v>
    <v>       0.99858285       0.00156174       0.53543602 </v>
    <v>       0.99880404       0.25035481       0.53534963 </v>
    <v>       0.58219796       0.33511270       0.61475720 </v>
    <v>       0.58235663       0.08014347       0.60874544 </v>
    <v>       0.83706587       0.33472168       0.60899167 </v>
    <v>       0.83621343       0.08030464       0.60906383 </v>
    <v>       0.58333000       0.83333000       0.39081000 </v>
    <v>       0.58333000       0.58333000       0.39081000 </v>
    <v>       0.83333000       0.83333000       0.39081000 </v>
    <v>       0.83333000       0.58333000       0.39081000 </v>
    <v>       0.91667000       0.66667000       0.46360000 </v>
    <v>       0.91667000       0.91667000       0.46360000 </v>
    <v>       0.66667000       0.66667000       0.46360000 </v>
    <v>       0.66667000       0.91667000       0.46360000 </v>
    <v>       0.74961313       0.50030510       0.53576719 </v>
    <v>       0.74955029       0.75044470       0.53567530 </v>
    <v>       0.99989307       0.50000806       0.53566813 </v>
    <v>       0.99964364       0.75056571       0.53563828 </v>
    <v>       0.58177558       0.83488876       0.60890566 </v>
    <v>       0.58256512       0.58969850       0.60862640 </v>
    <v>       0.83260115       0.83398279       0.60900740 </v>
    <v>       0.83285949       0.58515919       0.60895509 </v>
    <v>       0.54177485       0.37748923       0.70897841 </v>
    <v>       0.55833820       0.35952235       0.67262490 </v>
   </varray>
  </structure>
  <varray name="forces" >
   <v>      -0.00021719      -0.02037117      -0.05449197 </v>
   <v>       0.08137050      -0.04763072      -0.13886153 </v>
   <v>      -0.00134744      -0.00621377      -0.05456816 </v>
   <v>      -0.07665736      -0.04385518      -0.13094403 </v>
   <v>       0.08151910       0.04560260       0.01933729 </v>
   <v>       0.08424414      -0.05714667       0.27885811 </v>
   <v>      -0.01532721      -0.00488958       0.03668583 </v>
   <v>       0.02736213       0.03483458      -0.00042068 </v>
   <v>       0.00189347      -0.01247201       0.00676750 </v>
   <v>       0.00737059      -0.00132129      -0.00771508 </v>
   <v>      -0.00166897       0.00224988      -0.00090625 </v>
   <v>       0.00474624       0.00063478      -0.00694120 </v>
   <v>      -0.00331520       0.00412680       0.00273516 </v>
   <v>      -0.01534441      -0.00380550       0.01046323 </v>
   <v>       0.00477993      -0.01177284      -0.01627981 </v>
   <v>      -0.00186199       0.00295465      -0.00524585 </v>
   <v>       0.01256881       0.01035509      -0.05268237 </v>
   <v>       0.00580002      -0.00052508      -0.04448547 </v>
   <v>       0.00150704       0.08205277      -0.12278100 </v>
   <v>       0.00289243       0.00602031      -0.05997330 </v>
   <v>      -0.00096242      -0.05948396      -0.02797354 </v>
   <v>      -0.01768913       0.02624025       0.03373881 </v>
   <v>      -0.01737849      -0.03653853      -0.00521967 </v>
   <v>      -0.00328740       0.03706403       0.03642002 </v>
   <v>      -0.00522117      -0.00013542      -0.00423467 </v>
   <v>       0.00552199      -0.00858357       0.00247398 </v>
   <v>       0.00435736      -0.00335657      -0.01275719 </v>
   <v>      -0.00861131       0.00298751      -0.00832091 </v>
   <v>       0.00499403      -0.00834168      -0.00123450 </v>
   <v>      -0.00232541      -0.00141535       0.00899589 </v>
   <v>      -0.00472191       0.00803545       0.00579602 </v>
   <v>       0.00319895       0.00641268      -0.00418333 </v>
   <v>      -0.00024907      -0.00145890      -0.04104560 </v>
   <v>      -0.01575173      -0.00432526      -0.06270423 </v>
   <v>       0.00081234      -0.00826448      -0.05156534 </v>
   <v>       0.01308444      -0.00078668      -0.05508030 </v>
   <v>      -0.10795715       0.06168429       0.06717334 </v>
   <v>      -0.03894289       0.03734858       0.01020280 </v>
   <v>       0.00761271       0.13109934       0.32103577 </v>
   <v>      -0.09201736      -0.07103814       0.30290537 </v>
   <v>       0.00674373      -0.01333012      -0.00101043 </v>
   <v>       0.01565538       0.00122195      -0.01767543 </v>
   <v>      -0.00022863      -0.00460384      -0.00835451 </v>
   <v>       0.00581833      -0.01027244      -0.00191285 </v>
   <v>      -0.01160043       0.00480385      -0.00465597 </v>
   <v>       0.00560333      -0.00063603      -0.00461840 </v>
   <v>       0.00218206      -0.00804213      -0.02371486 </v>
   <v>       0.00992711      -0.00130080      -0.02853544 </v>
   <v>      -0.01187336       0.00846935      -0.05164141 </v>
   <v>      -0.00274660       0.01304323      -0.06583875 </v>
   <v>      -0.00279989       0.00736154      -0.04998740 </v>
   <v>      -0.00847447       0.00021271      -0.04548995 </v>
   <v>      -0.00333019       0.00138330       0.05531102 </v>
   <v>      -0.04262707       0.02406073       0.01518032 </v>
   <v>       0.01023718      -0.03969201       0.00211865 </v>
   <v>       0.03933333       0.01789491       0.00847867 </v>
   <v>       0.02638405      -0.00491970      -0.00627850 </v>
   <v>       0.00347615      -0.00040922       0.00559314 </v>
   <v>      -0.00427777      -0.00125355       0.01036217 </v>
   <v>       0.01040444      -0.00289135       0.00851684 </v>
   <v>       0.00102868       0.00288394       0.00140959 </v>
   <v>       0.00259260      -0.00044294      -0.01604904 </v>
   <v>      -0.00184369      -0.00059529       0.00205222 </v>
   <v>      -0.00647774      -0.00483093       0.00910152 </v>
   <v>       0.01118774      -0.05818581      -0.07690212 </v>
   <v>       0.02092473      -0.01590058       0.11156778 </v>
  </varray>
  <varray name="stress" >
   <v>     -21.69155592       0.02658925      -0.21767945 </v>
   <v>       0.02658925     -21.36099378       0.38068734 </v>
   <v>      -0.21767945       0.38068734     -15.84591267 </v>
  </varray>
  <energy>
   <i name="e_fr_energy">   -386.85031205 </i>
   <i name="e_wo_entrp">   -386.83764920 </i>
   <i name="e_0_energy">     -0.03798856 </i>
  </energy>
  <time name="totalsc">  307.48  308.34</time>
 </calculation>
 <calculation>
  <scstep>
   <time name="dav">   11.04   11.07</time>
   <time name="total">   11.34   11.38</time>
   <energy>
    <i name="alphaZ">   1162.91707422 </i>
    <i name="ewald"> 409517.33925523 </i>
    <i name="hartreedc">-457486.68333815 </i>
    <i name="XCdc">    234.24798733 </i>
    <i name="pawpsdc">  57248.38989249 </i>
    <i name="pawaedc"> -55614.99321616 </i>
    <i name="eentropy">     -0.03799490 </i>
    <i name="bandstr">  -2690.58418478 </i>
    <i name="atom">  47242.55533565 </i>
    <i name="e_fr_energy">   -386.84918905 </i>
    <i name="e_wo_entrp">   -386.81119415 </i>
    <i name="e_0_energy">   -386.83652408 </i>
   </energy>
  </scstep>
  <scstep>
   <time name="diag">    1.56    1.56</time>
   <time name="diis">    4.77    4.78</time>
   <time name="orth">    0.49    0.49</time>
   <time name="total">    7.12    7.14</time>
   <energy>
    <i name="e_fr_energy">   -386.85023952 </i>
    <i name="e_wo_entrp">   -386.81224163 </i>
    <i name="e_0_energy">   -386.83757356 </i>
   </energy>
  </scstep>
  <scstep>
   <time name="diag">    1.56    1.56</time>
   <time name="diis">    4.82    4.83</time>
   <time name="orth">    0.49    0.49</time>
   <time name="total">    7.18    7.19</time>
   <energy>
    <i name="e_fr_energy">   -386.85033880 </i>
    <i name="e_wo_entrp">   -386.81238628 </i>
    <i name="e_0_energy">   -386.83768796 </i>
   </energy>
  </scstep>
  <scstep>
   <time name="diag">    1.56    1.56</time>
   <time name="diis">    4.82    4.83</time>
   <time name="orth">    0.49    0.49</time>
   <time name="total">    7.17    7.19</time>
   <energy>
    <i name="e_fr_energy">   -386.85057123 </i>
    <i name="e_wo_entrp">   -386.81248843 </i>
    <i name="e_0_energy">   -386.83787696 </i>
   </energy>
  </scstep>
  <scstep>
   <time name="diag">    1.55    1.56</time>
   <time name="diis">    4.75    4.77</time>
   <time name="orth">    0.49    0.49</time>
   <time name="total">    7.11    7.13</time>
   <energy>
    <i name="e_fr_energy">   -386.85037915 </i>
    <i name="e_wo_entrp">   -386.81239273 </i>
    <i name="e_0_energy">   -386.83771701 </i>
   </energy>
  </scstep>
  <scstep>
   <time name="diag">    1.55    1.56</time>
   <time name="diis">    4.68    4.69</time>
   <time name="orth">    0.49    0.49</time>
   <time name="total">    7.03    7.04</time>
   <energy>
    <i name="e_fr_energy">   -386.85026850 </i>
    <i name="e_wo_entrp">   -386.81228488 </i>
    <i name="e_0_energy">   -386.83760730 </i>
   </energy>
  </scstep>
  <scstep>
   <time name="diag">    1.55    1.56</time>
   <time name="diis">    3.00    3.01</time>
   <time name="orth">    0.49    0.49</time>
   <time name="total">    5.35    5.36</time>
   <energy>
    <i name="e_fr_energy">   -386.85024543 </i>
    <i name="e_wo_entrp">   -386.81225281 </i>
    <i name="e_0_energy">   -386.83758122 </i>
   </energy>
  </scstep>
  <scstep>
   <time name="diag">    1.56    1.57</time>
   <time name="diis">    2.73    2.74</time>
   <time name="orth">    0.49    0.49</time>
   <time name="total">    4.81    4.82</time>
   <energy>
    <i name="alphaZ">   1162.91707422 </i>
    <i name="ewald"> 409517.33925523 </i>
    <i name="hartreedc">-457486.94417717 </i>
    <i name="XCdc">    234.25065459 </i>
    <i name="pawpsdc">  57250.06712735 </i>
    <i name="pawaedc"> -55616.67162946 </i>
    <i name="eentropy">     -0.03799864 </i>
    <i name="bandstr">  -2690.32588652 </i>
    <i name="atom">  47242.55533565 </i>
    <i name="e_fr_energy">   -386.85024475 </i>
    <i name="e_wo_entrp">   -386.81224611 </i>
    <i name="e_0_energy">   -386.83757854 </i>
   </energy>
  </scstep>
  <structure>
   <crystal>
    <varray name="basis" >
     <v>      11.21440000       0.00000000       0.00000000 </v>
     <v>       5.60720000       9.71195529       0.00000000 </v>
     <v>       0.00000000       0.00000000      31.44560000 </v>
    </varray>
    <i name="volume">   3424.85826052 </i>
    <varray name="rec_basis" >
     <v>       0.08917107      -0.05148294       0.00000000 </v>
     <v>       0.00000000       0.10296588       0.00000000 </v>
     <v>       0.00000000       0.00000000       0.03180095 </v>
    </varray>
   </crystal>
   <varray name="positions" >
    <v>       0.08333000       0.33333000       0.39081000 </v>
    <v>       0.08333000       0.08333000       0.39081000 </v>
    <v>       0.33333000       0.33333000       0.39081000 </v>
    <v>       0.33333000       0.08333000       0.39081000 </v>
    <v>       0.41667000       0.16667000       0.46360000 </v>
    <v>       0.41667000       0.41667000       0.46360000 </v>
    <v>       0.16667000       0.16667000       0.46360000 </v>
    <v>       0.16667000       0.41667000       0.46360000 </v>
    <v>       0.24951926       0.00055800       0.53568836 </v>
    <v>       0.25027000       0.25008522       0.53529254 </v>
    <v>       0.49956672       0.00097941       0.53535813 </v>
    <v>       0.50056570       0.25220483       0.53764513 </v>
    <v>       0.08260975       0.33384429       0.60889287 </v>
    <v>       0.08260699       0.08451868       0.60893195 </v>
    <v>       0.32672308       0.33478154       0.60874483 </v>
    <v>       0.33224144       0.08424246       0.60900507 </v>
    <v>       0.08333000       0.83333000       0.39081000 </v>
    <v>       0.08333000       0.58333000       0.39081000 </v>
    <v>       0.33333000       0.83333000       0.39081000 </v>
    <v>       0.33333000       0.58333000       0.39081000 </v>
    <v>       0.41667000       0.66667000       0.46360000 </v>
    <v>       0.41667000       0.91667000       0.46360000 </v>
    <v>       0.16667000       0.66667000       0.46360000 </v>
    <v>       0.16667000       0.91667000       0.46360000 </v>
    <v>       0.24958714       0.50038431       0.53571004 </v>
    <v>       0.24980554       0.75046876       0.53524572 </v>
    <v>       0.50016327       0.49905522       0.53723481 </v>
    <v>       0.49955578       0.75018622       0.53528848 </v>
    <v>       0.08218648       0.83526936       0.60887576 </v>
    <v>       0.08092425       0.58532500       0.60893022 </v>
    <v>       0.33206301       0.83519811       0.60887279 </v>
    <v>       0.32651076       0.59018612       0.60847888 </v>
    <v>       0.58333000       0.33333000       0.39081000 </v>
    <v>       0.58333000       0.08333000       0.39081000 </v>
    <v>       0.83333000       0.33333000       0.39081000 </v>
    <v>       0.83333000       0.08333000       0.39081000 </v>
    <v>       0.91667000       0.16667000       0.46360000 </v>
    <v>       0.91667000       0.41667000       0.46360000 </v>
    <v>       0.66667000       0.16667000       0.46360000 </v>
    <v>       0.66667000       0.41667000       0.46360000 </v>
    <v>       0.74955488       0.00058008       0.53573887 </v>
    <v>       0.74565063       0.25257297       0.53808463 </v>
    <v>       0.99858285       0.00156174       0.53543602 </v>
    <v>       0.99880404       0.25035481       0.53534963 </v>
    <v>       0.58219796       0.33511270       0.61475720 </v>
    <v>       0.58235663       0.08014347       0.60874544 </v>
    <v>       0.83706587       0.33472168       0.60899167 </v>
    <v>       0.83621343       0.08030464       0.60906383 </v>
    <v>       0.58333000       0.83333000       0.39081000 </v>
    <v>       0.58333000       0.58333000       0.39081000 </v>
    <v>       0.83333000       0.83333000       0.39081000 </v>
    <v>       0.83333000       0.58333000       0.39081000 </v>
    <v>       0.91667000       0.66667000       0.46360000 </v>
    <v>       0.91667000       0.91667000       0.46360000 </v>
    <v>       0.66667000       0.66667000       0.46360000 </v>
    <v>       0.66667000       0.91667000       0.46360000 </v>
    <v>       0.74961313       0.50030510       0.53576719 </v>
    <v>       0.74955029       0.75044470       0.53567530 </v>
    <v>       0.99989307       0.50000806       0.53566813 </v>
    <v>       0.99964364       0.75056571       0.53563828 </v>
    <v>       0.58177558       0.83488876       0.60890566 </v>
    <v>       0.58256512       0.58969850       0.60862640 </v>
    <v>       0.83260115       0.83398279       0.60900740 </v>
    <v>       0.83285949       0.58515919       0.60895509 </v>
    <v>       0.54311241       0.37748923       0.70897841 </v>
    <v>       0.55833820       0.35952235       0.67262490 </v>
   </varray>
  </structure>
  <varray name="forces" >
   <v>      -0.00050726      -0.02035646      -0.05452308 </v>
   <v>       0.08129991      -0.04752633      -0.13933255 </v>
   <v>      -0.00121169      -0.00630182      -0.05469105 </v>
   <v>      -0.07667137      -0.04411817      -0.13046814 </v>
   <v>       0.08133925       0.04527931       0.01880252 </v>
   <v>       0.08420631      -0.05723604       0.27927858 </v>
   <v>      -0.01543339      -0.00498977       0.03678194 </v>
   <v>       0.02736701       0.03461598      -0.00027770 </v>
   <v>       0.00234292      -0.01256229       0.00668859 </v>
   <v>       0.00775856      -0.00128248      -0.00735063 </v>
   <v>      -0.00163718       0.00227401      -0.00088363 </v>
   <v>       0.00278817      -0.00061181      -0.01068274 </v>
   <v>      -0.00281467       0.00404389       0.00272227 </v>
   <v>      -0.01509593      -0.00378698       0.01072668 </v>
   <v>       0.00399311      -0.01201499      -0.01579086 </v>
   <v>      -0.00161302       0.00285206      -0.00541005 </v>
   <v>       0.01256817       0.01044362      -0.05304564 </v>
   <v>       0.00554433      -0.00056219      -0.04488683 </v>
   <v>       0.00175193       0.08196793      -0.12268264 </v>
   <v>       0.00312107       0.00590057      -0.05986725 </v>
   <v>      -0.00069465      -0.05952685      -0.02793471 </v>
   <v>      -0.01762452       0.02602139       0.03382101 </v>
   <v>      -0.01733374      -0.03667177      -0.00515572 </v>
   <v>      -0.00320810       0.03708819       0.03651285 </v>
   <v>      -0.00508563      -0.00038906      -0.00414364 </v>
   <v>       0.00559642      -0.00897616       0.00271738 </v>
   <v>       0.00454936      -0.00321398      -0.01323717 </v>
   <v>      -0.00855430       0.00310925      -0.00863452 </v>
   <v>       0.00501417      -0.00867140      -0.00102399 </v>
   <v>      -0.00235113      -0.00163996       0.00880753 </v>
   <v>      -0.00438284       0.00791747       0.00585638 </v>
   <v>       0.00329086       0.00657802      -0.00336261 </v>
   <v>      -0.00020782      -0.00148472      -0.04095647 </v>
   <v>      -0.01566234      -0.00449849      -0.06289516 </v>
   <v>       0.00087362      -0.00825368      -0.05143480 </v>
   <v>       0.01313617      -0.00075745      -0.05492799 </v>
   <v>      -0.10814698       0.06186829       0.06790596 </v>
   <v>      -0.03903789       0.03745045       0.01027106 </v>
   <v>       0.00745076       0.13105691       0.32119996 </v>
   <v>      -0.09213869      -0.07104236       0.30289507 </v>
   <v>       0.00652857      -0.01329268      -0.00109629 </v>
   <v>       0.01373868       0.00248799      -0.01441538 </v>
   <v>      -0.00025345      -0.00472056      -0.00843763 </v>
   <v>       0.00604224      -0.01030622      -0.00214792 </v>
   <v>      -0.02350009       0.00340060      -0.01125503 </v>
   <v>       0.00547350      -0.00095525      -0.00490709 </v>
   <v>       0.00083053      -0.00789782      -0.02356290 </v>
   <v>       0.00959393      -0.00071628      -0.02811727 </v>
   <v>      -0.01178117       0.00817880      -0.05124503 </v>
   <v>      -0.00254600       0.01303953      -0.06582976 </v>
   <v>      -0.00307432       0.00727862      -0.04998973 </v>
   <v>      -0.00871411       0.00020057      -0.04516012 </v>
   <v>      -0.00348658       0.00132669       0.05536283 </v>
   <v>      -0.04282765       0.02398903       0.01519915 </v>
   <v>       0.01015003      -0.03968201       0.00221483 </v>
   <v>       0.03910182       0.01788846       0.00861731 </v>
   <v>       0.02636611      -0.00482985      -0.00659946 </v>
   <v>       0.00336633      -0.00041597       0.00553005 </v>
   <v>      -0.00423086      -0.00133595       0.01035470 </v>
   <v>       0.01035426      -0.00302531       0.00853173 </v>
   <v>       0.00101349       0.00312811       0.00125506 </v>
   <v>       0.00242856      -0.00130202      -0.01665374 </v>
   <v>      -0.00214822      -0.00064778       0.00209720 </v>
   <v>      -0.00652745      -0.00475110       0.00932040 </v>
   <v>      -0.02377211      -0.03915070       0.02145550 </v>
   <v>       0.07329499      -0.02988103       0.01809040 </v>
  </varray>
  <varray name="stress" >
   <v>     -21.69975561       0.03240032      -0.19061069 </v>
   <v>       0.03240032     -21.36319677       0.39167795 </v>
   <v>      -0.19061069       0.39167795     -15.78043986 </v>
  </varray>
  <energy>
   <i name="e_fr_energy">   -386.85024475 </i>
   <i name="e_wo_entrp">   -386.83757854 </i>
   <i name="e_0_energy">     -0.03799864 </i>
  </energy>
  <time name="totalsc">   60.62   60.80</time>
 </calculation>
 <calculation>
  <scstep>
   <time name="dav">   11.02   11.05</time>
   <time name="total">   11.33   11.36</time>
   <energy>
    <i name="alphaZ">   1162.91707422 </i>
    <i name="ewald"> 409516.73019241 </i>
    <i name="hartreedc">-457486.54844664 </i>
    <i name="XCdc">    234.23987479 </i>
    <i name="pawpsdc">  57250.07059154 </i>
    <i name="pawaedc"> -55616.67519882 </i>
    <i name="eentropy">     -0.03797272 </i>
    <i name="bandstr">  -2690.09692225 </i>
    <i name="atom">  47242.55533565 </i>
    <i name="e_fr_energy">   -386.84547182 </i>
    <i name="e_wo_entrp">   -386.80749910 </i>
    <i name="e_0_energy">   -386.83281424 </i>
   </energy>
  </scstep>
  <scstep>
   <time name="diag">    1.56    1.56</time>
   <time name="diis">    4.85    4.86</time>
   <time name="orth">    0.49    0.49</time>
   <time name="total">    7.20    7.23</time>
   <energy>
    <i name="e_fr_energy">   -386.85004926 </i>
    <i name="e_wo_entrp">   -386.81204748 </i>
    <i name="e_0_energy">   -386.83738200 </i>
   </energy>
  </scstep>
  <scstep>
   <time name="diag">    1.56    1.56</time>
   <time name="diis">    4.84    4.85</time>
   <time name="orth">    0.49    0.50</time>
   <time name="total">    7.20    7.22</time>
   <energy>
    <i name="e_fr_energy">   -386.85072899 </i>
    <i name="e_wo_entrp">   -386.81291155 </i>
    <i name="e_0_energy">   -386.83812317 </i>
   </energy>
  </scstep>
  <scstep>
   <time name="diag">    1.56    1.57</time>
   <time name="diis">    4.83    4.84</time>
   <time name="orth">    0.49    0.49</time>
   <time name="total">    7.19    7.21</time>
   <energy>
    <i name="e_fr_energy">   -386.85074594 </i>
    <i name="e_wo_entrp">   -386.81262154 </i>
    <i name="e_0_energy">   -386.83803781 </i>
   </energy>
  </scstep>
  <scstep>
   <time name="diag">    1.57    1.57</time>
   <time name="diis">    4.88    4.89</time>
   <time name="orth">    0.49    0.49</time>
   <time name="total">    7.23    7.25</time>
   <energy>
    <i name="e_fr_energy">   -386.85053491 </i>
    <i name="e_wo_entrp">   -386.81258093 </i>
    <i name="e_0_energy">   -386.83788358 </i>
   </energy>
  </scstep>
  <scstep>
   <time name="diag">    1.57    1.58</time>
   <time name="diis">    4.92    4.93</time>
   <time name="orth">    0.49    0.49</time>
   <time name="total">    7.29    7.31</time>
   <energy>
    <i name="e_fr_energy">   -386.85003538 </i>
    <i name="e_wo_entrp">   -386.81200662 </i>
    <i name="e_0_energy">   -386.83735913 </i>
   </energy>
  </scstep>
  <scstep>
   <time name="diag">    1.56    1.57</time>
   <time name="diis">    4.79    4.80</time>
   <time name="orth">    0.49    0.49</time>
   <time name="total">    7.16    7.17</time>
   <energy>
    <i name="e_fr_energy">   -386.84991752 </i>
    <i name="e_wo_entrp">   -386.81197295 </i>
    <i name="e_0_energy">   -386.83726933 </i>
   </energy>
  </scstep>
  <scstep>
   <time name="diag">    1.56    1.56</time>
   <time name="diis">    2.81    2.82</time>
   <time name="orth">    0.49    0.49</time>
   <time name="total">    4.88    4.89</time>
   <energy>
    <i name="alphaZ">   1162.91707422 </i>
    <i name="ewald"> 409516.73019241 </i>
    <i name="hartreedc">-457486.11975251 </i>
    <i name="XCdc">    234.23519478 </i>
    <i name="pawpsdc">  57246.66124066 </i>
    <i name="pawaedc"> -55613.26353380 </i>
    <i name="eentropy">     -0.03802794 </i>
    <i name="bandstr">  -2690.52763909 </i>
    <i name="atom">  47242.55533565 </i>
    <i name="e_fr_energy">   -386.84991561 </i>
    <i name="e_wo_entrp">   -386.81188767 </i>
    <i name="e_0_energy">   -386.83723963 </i>
   </energy>
  </scstep>
  <structure>
   <crystal>
    <varray name="basis" >
     <v>      11.21440000       0.00000000       0.00000000 </v>
     <v>       5.60720000       9.71195529       0.00000000 </v>
     <v>       0.00000000       0.00000000      31.44560000 </v>
    </varray>
    <i name="volume">   3424.85826052 </i>
    <varray name="rec_basis" >
     <v>       0.08917107      -0.05148294       0.00000000 </v>
     <v>       0.00000000       0.10296588       0.00000000 </v>
     <v>       0.00000000       0.00000000       0.03180095 </v>
    </varray>
   </crystal>
   <varray name="positions" >
    <v>       0.08333000       0.33333000       0.39081000 </v>
    <v>       0.08333000       0.08333000       0.39081000 </v>
    <v>       0.33333000       0.33333000       0.39081000 </v>
    <v>       0.33333000       0.08333000       0.39081000 </v>
    <v>       0.41667000       0.16667000       0.46360000 </v>
    <v>       0.41667000       0.41667000       0.46360000 </v>
    <v>       0.16667000       0.16667000       0.46360000 </v>
    <v>       0.16667000       0.41667000       0.46360000 </v>
    <v>       0.24951926       0.00055800       0.53568836 </v>
    <v>       0.25027000       0.25008522       0.53529254 </v>
    <v>       0.49956672       0.00097941       0.53535813 </v>
    <v>       0.50056570       0.25220483       0.53764513 </v>
    <v>       0.08260975       0.33384429       0.60889287 </v>
    <v>       0.08260699       0.08451868       0.60893195 </v>
    <v>       0.32672308       0.33478154       0.60874483 </v>
    <v>       0.33224144       0.08424246       0.60900507 </v>
    <v>       0.08333000       0.83333000       0.39081000 </v>
    <v>       0.08333000       0.58333000       0.39081000 </v>
    <v>       0.33333000       0.83333000       0.39081000 </v>
    <v>       0.33333000       0.58333000       0.39081000 </v>
    <v>       0.41667000       0.66667000       0.46360000 </v>
    <v>       0.41667000       0.91667000       0.46360000 </v>
    <v>       0.16667000       0.66667000       0.46360000 </v>
    <v>       0.16667000       0.91667000       0.46360000 </v>
    <v>       0.24958714       0.50038431       0.53571004 </v>
    <v>       0.24980554       0.75046876       0.53524572 </v>
    <v>       0.50016327       0.49905522       0.53723481 </v>
    <v>       0.49955578       0.75018622       0.53528848 </v>
    <v>       0.08218648       0.83526936       0.60887576 </v>
    <v>       0.08092425       0.58532500       0.60893022 </v>
    <v>       0.33206301       0.83519811       0.60887279 </v>
    <v>       0.32651076       0.59018612       0.60847888 </v>
    <v>       0.58333000       0.33333000       0.39081000 </v>
    <v>       0.58333000       0.08333000       0.39081000 </v>
    <v>       0.83333000       0.33333000       0.39081000 </v>
    <v>       0.83333000       0.08333000       0.39081000 </v>
    <v>       0.91667000       0.16667000       0.46360000 </v>
    <v>       0.91667000       0.41667000       0.46360000 </v>
    <v>       0.66667000       0.16667000       0.46360000 </v>
    <v>       0.66667000       0.41667000       0.46360000 </v>
[...]
       <r>   -20.9123     0.0000     2.0000 </r>
       <r>   -20.8067     0.0000     2.0000 </r>
       <r>   -20.7011     0.0000     2.0000 </r>
       <r>   -20.5954     0.0000     2.0000 </r>
       <r>   -20.4898     0.0000     2.0000 </r>
       <r>   -20.3841     0.0000     2.0000 </r>
       <r>   -20.2785     0.0000     2.0000 </r>
       <r>   -20.1729     0.0000     2.0000 </r>
       <r>   -20.0672     0.0000     2.0000 </r>
       <r>   -19.9616     0.0000     2.0000 </r>
       <r>   -19.8560     0.0000     2.0000 </r>
       <r>   -19.7503     0.0000     2.0000 </r>
       <r>   -19.6447     0.0000     2.0000 </r>
       <r>   -19.5391     0.0000     2.0000 </r>
       <r>   -19.4334     0.0000     2.0000 </r>
       <r>   -19.3278     0.0000     2.0000 </r>
       <r>   -19.2221     0.0000     2.0000 </r>
       <r>   -19.1165     0.0000     2.0000 </r>
       <r>   -19.0109     0.0000     2.0000 </r>
       <r>   -18.9052     0.0000     2.0000 </r>
       <r>   -18.7996     0.0000     2.0000 </r>
       <r>   -18.6940     0.0000     2.0000 </r>
       <r>   -18.5883     0.0000     2.0000 </r>
       <r>   -18.4827     0.0000     2.0000 </r>
       <r>   -18.3770     0.0000     2.0000 </r>
       <r>   -18.2714     0.0000     2.0000 </r>
       <r>   -18.1658     0.0000     2.0000 </r>
       <r>   -18.0601     0.0000     2.0000 </r>
       <r>   -17.9545     0.0000     2.0000 </r>
       <r>   -17.8489     0.0000     2.0000 </r>
       <r>   -17.7432     0.0000     2.0000 </r>
       <r>   -17.6376     0.0000     2.0000 </r>
       <r>   -17.5320     0.0000     2.0000 </r>
       <r>   -17.4263     0.0000     2.0000 </r>
       <r>   -17.3207     0.0000     2.0000 </r>
       <r>   -17.2150     0.0000     2.0000 </r>
       <r>   -17.1094     0.0000     2.0000 </r>
       <r>   -17.0038     0.0000     2.0000 </r>
       <r>   -16.8981     0.0000     2.0000 </r>
       <r>   -16.7925     0.0000     2.0000 </r>
       <r>   -16.6869     0.0000     2.0000 </r>
       <r>   -16.5812     0.0000     2.0000 </r>
       <r>   -16.4756     0.0000     2.0000 </r>
       <r>   -16.3699     0.0000     2.0000 </r>
       <r>   -16.2643     0.0000     2.0000 </r>
       <r>   -16.1587     0.0000     2.0000 </r>
       <r>   -16.0530     0.0000     2.0000 </r>
       <r>   -15.9474     0.0000     2.0000 </r>
       <r>   -15.8418     0.0000     2.0000 </r>
       <r>   -15.7361     0.0000     2.0000 </r>
       <r>   -15.6305     0.0000     2.0000 </r>
       <r>   -15.5249     0.0000     2.0000 </r>
       <r>   -15.4192     0.0000     2.0000 </r>
       <r>   -15.3136     0.0000     2.0000 </r>
       <r>   -15.2079     0.0000     2.0000 </r>
       <r>   -15.1023     0.0000     2.0000 </r>
       <r>   -14.9967     0.0000     2.0000 </r>
       <r>   -14.8910     0.0000     2.0000 </r>
       <r>   -14.7854     0.0000     2.0000 </r>
       <r>   -14.6798     0.0000     2.0000 </r>
       <r>   -14.5741     0.0000     2.0000 </r>
       <r>   -14.4685     0.0000     2.0000 </r>
       <r>   -14.3628     0.0000     2.0000 </r>
       <r>   -14.2572     0.0000     2.0000 </r>
       <r>   -14.1516     0.0000     2.0000 </r>
       <r>   -14.0459     0.0000     2.0000 </r>
       <r>   -13.9403     0.0000     2.0000 </r>
       <r>   -13.8347     0.0000     2.0000 </r>
       <r>   -13.7290     0.0000     2.0000 </r>
       <r>   -13.6234     0.0000     2.0000 </r>
       <r>   -13.5178     0.0000     2.0000 </r>
       <r>   -13.4121     0.0000     2.0000 </r>
       <r>   -13.3065     0.0000     2.0000 </r>
       <r>   -13.2008     0.0000     2.0000 </r>
       <r>   -13.0952     0.0000     2.0000 </r>
       <r>   -12.9896     0.0000     2.0000 </r>
       <r>   -12.8839     0.0000     2.0000 </r>
       <r>   -12.7783     0.0000     2.0000 </r>
       <r>   -12.6727     0.0000     2.0000 </r>
       <r>   -12.5670     0.0000     2.0000 </r>
       <r>   -12.4614     0.0000     2.0000 </r>
       <r>   -12.3557     0.0000     2.0000 </r>
       <r>   -12.2501     0.0000     2.0000 </r>
       <r>   -12.1445     0.0000     2.0000 </r>
       <r>   -12.0388    -0.0000     2.0000 </r>
       <r>   -11.9332    -0.0000     2.0000 </r>
       <r>   -11.8276    -0.0000     2.0000 </r>
       <r>   -11.7219    -0.0000     2.0000 </r>
       <r>   -11.6163    -0.0000     2.0000 </r>
       <r>   -11.5107    -0.0000     2.0000 </r>
       <r>   -11.4050    -0.0126     1.9987 </r>
       <r>   -11.2994    -0.4563     1.9505 </r>
       <r>   -11.1937     2.8591     2.2525 </r>
       <r>   -11.0881    14.5748     3.7921 </r>
       <r>   -10.9825     2.3993     4.0456 </r>
       <r>   -10.8768    -0.4212     4.0011 </r>
       <r>   -10.7712    -0.0103     4.0000 </r>
       <r>   -10.6656    -0.0000     4.0000 </r>
       <r>   -10.5599    -0.0000     4.0000 </r>
       <r>   -10.4543    -0.0008     3.9999 </r>
       <r>   -10.3486    -0.0299     3.9968 </r>
       <r>   -10.2430     0.0812     4.0053 </r>
       <r>   -10.1374     1.1666     4.1286 </r>
       <r>   -10.0317     5.2373     4.6818 </r>
       <r>    -9.9261     1.8006     4.8720 </r>
       <r>    -9.8205     2.5351     5.1398 </r>
       <r>    -9.7148     6.4373     5.8199 </r>
       <r>    -9.6092     4.9311     6.3408 </r>
       <r>    -9.5036     0.2553     6.3677 </r>
       <r>    -9.3979     0.3914     6.4091 </r>
       <r>    -9.2923     9.4868     7.4112 </r>
       <r>    -9.1866     4.7618     7.9143 </r>
       <r>    -9.0810     4.1798     8.3558 </r>
       <r>    -8.9754     2.7305     8.6442 </r>
       <r>    -8.8697     0.0875     8.6535 </r>
       <r>    -8.7641     7.6885     9.4657 </r>
       <r>    -8.6585    16.5429    11.2132 </r>
       <r>    -8.5528     7.5383    12.0095 </r>
       <r>    -8.4472     9.3302    12.9951 </r>
       <r>    -8.3415    15.9763    14.6828 </r>
       <r>    -8.2359    10.0852    15.7482 </r>
       <r>    -8.1303     3.8473    16.1546 </r>
       <r>    -8.0246    21.5956    18.4359 </r>
       <r>    -7.9190    19.3773    20.4829 </r>
       <r>    -7.8134    10.0258    21.5420 </r>
       <r>    -7.7077     6.6248    22.2418 </r>
       <r>    -7.6021    10.6674    23.3687 </r>
       <r>    -7.4965    51.6788    28.8278 </r>
       <r>    -7.3908    71.0527    36.3336 </r>
       <r>    -7.2852    45.5915    41.1498 </r>
       <r>    -7.1795    38.5496    45.2220 </r>
       <r>    -7.0739    67.7424    52.3781 </r>
       <r>    -6.9683    50.2811    57.6896 </r>
       <r>    -6.8626    52.0576    63.1888 </r>
       <r>    -6.7570    61.8512    69.7226 </r>
       <r>    -6.6514    71.0647    77.2297 </r>
       <r>    -6.5457   100.7003    87.8673 </r>
       <r>    -6.4401   101.3718    98.5759 </r>
       <r>    -6.3344    87.4723   107.8162 </r>
       <r>    -6.2288    99.0085   118.2752 </r>
       <r>    -6.1232    84.1599   127.1655 </r>
       <r>    -6.0175    68.9003   134.4440 </r>
       <r>    -5.9119    68.7056   141.7018 </r>
       <r>    -5.8063    41.6705   146.1037 </r>
       <r>    -5.7006    43.1804   150.6652 </r>
       <r>    -5.5950    99.1237   161.1363 </r>
       <r>    -5.4894    92.8112   170.9406 </r>
       <r>    -5.3837    71.9306   178.5391 </r>
       <r>    -5.2781    78.5087   186.8325 </r>
       <r>    -5.1724    92.1080   196.5625 </r>
       <r>    -5.0668    87.8820   205.8461 </r>
       <r>    -4.9612    75.3544   213.8063 </r>
       <r>    -4.8555    65.6980   220.7464 </r>
       <r>    -4.7499    75.1485   228.6849 </r>
       <r>    -4.6443    91.2189   238.3209 </r>
       <r>    -4.5386   110.2283   249.9651 </r>
       <r>    -4.4330   133.2207   264.0381 </r>
       <r>    -4.3273   123.2332   277.0561 </r>
       <r>    -4.2217    98.4590   287.4570 </r>
       <r>    -4.1161   141.0019   302.3520 </r>
       <r>    -4.0104   152.3771   318.4486 </r>
       <r>    -3.9048   147.7865   334.0603 </r>
       <r>    -3.7992   141.8766   349.0477 </r>
       <r>    -3.6935   146.9645   364.5726 </r>
       <r>    -3.5879   142.3439   379.6093 </r>
       <r>    -3.4823    93.7393   389.5116 </r>
       <r>    -3.3766    72.5339   397.1739 </r>
       <r>    -3.2710    77.3111   405.3408 </r>
       <r>    -3.1653    73.4307   413.0978 </r>
       <r>    -3.0597    74.0423   420.9194 </r>
       <r>    -2.9541   133.3143   435.0023 </r>
       <r>    -2.8484   136.4014   449.4113 </r>
       <r>    -2.7428    89.0288   458.8160 </r>
       <r>    -2.6372    78.2070   467.0775 </r>
       <r>    -2.5315    76.9900   475.2105 </r>
       <r>    -2.4259    85.5536   484.2481 </r>
       <r>    -2.3202    86.1356   493.3472 </r>
       <r>    -2.2146    96.3365   503.5239 </r>
       <r>    -2.1090   106.9214   514.8187 </r>
       <r>    -2.0033   143.0840   529.9337 </r>
       <r>    -1.8977   131.1925   543.7924 </r>
       <r>    -1.7921   111.5503   555.5763 </r>
       <r>    -1.6864    76.1059   563.6158 </r>
       <r>    -1.5808    60.0227   569.9565 </r>
       <r>    -1.4752   110.1672   581.5942 </r>
       <r>    -1.3695   115.6971   593.8160 </r>
       <r>    -1.2639    94.4389   603.7923 </r>
       <r>    -1.1582   100.1561   614.3724 </r>
       <r>    -1.0526   130.0919   628.1149 </r>
       <r>    -0.9470   160.4203   645.0612 </r>
       <r>    -0.8413   144.7502   660.3522 </r>
       <r>    -0.7357   107.5191   671.7102 </r>
       <r>    -0.6301    97.3063   681.9893 </r>
       <r>    -0.5244    59.4350   688.2678 </r>
       <r>    -0.4188    13.4902   689.6929 </r>
       <r>    -0.3131    23.1040   692.1335 </r>
       <r>    -0.2075    21.9669   694.4540 </r>
       <r>    -0.1019    14.1966   695.9537 </r>
       <r>     0.0038    20.5632   698.1260 </r>
       <r>     0.1094    34.6432   701.7855 </r>
       <r>     0.2150    24.0729   704.3285 </r>
       <r>     0.3207    36.5598   708.1906 </r>
       <r>     0.4263    22.0893   710.5240 </r>
       <r>     0.5319    16.9333   712.3128 </r>
       <r>     0.6376    10.9563   713.4702 </r>
       <r>     0.7432     2.4722   713.7314 </r>
       <r>     0.8489    12.9105   715.0952 </r>
       <r>     0.9545    18.0162   716.9984 </r>
       <r>     1.0601    25.9208   719.7366 </r>
       <r>     1.1658    26.0171   722.4849 </r>
       <r>     1.2714    26.9556   725.3324 </r>
       <r>     1.3770    30.0014   728.5017 </r>
       <r>     1.4827    26.0191   731.2502 </r>
       <r>     1.5883    25.4075   733.9342 </r>
       <r>     1.6940    10.9684   735.0929 </r>
       <r>     1.7996    17.0251   736.8914 </r>
       <r>     1.9052    15.3069   738.5083 </r>
       <r>     2.0109    17.9397   740.4034 </r>
       <r>     2.1165    29.3379   743.5026 </r>
       <r>     2.2221    16.3908   745.2341 </r>
       <r>     2.3278    19.4806   747.2919 </r>
       <r>     2.4334    26.5419   750.0957 </r>
       <r>     2.5390    24.5233   752.6863 </r>
       <r>     2.6447    17.7464   754.5610 </r>
       <r>     2.7503    12.7934   755.9124 </r>
       <r>     2.8560    22.3319   758.2715 </r>
       <r>     2.9616    29.0057   761.3355 </r>
       <r>     3.0672    21.1274   763.5674 </r>
       <r>     3.1729    20.2600   765.7076 </r>
       <r>     3.2785    15.6081   767.3564 </r>
       <r>     3.3841    29.0054   770.4204 </r>
       <r>     3.4898    28.8023   773.4630 </r>
       <r>     3.5954     5.4852   774.0424 </r>
       <r>     3.7011    14.9281   775.6194 </r>
       <r>     3.8067    12.2995   776.9187 </r>
       <r>     3.9123     5.3010   777.4787 </r>
       <r>     4.0180    10.1469   778.5505 </r>
       <r>     4.1236    18.3582   780.4898 </r>
       <r>     4.2292    19.2009   782.5182 </r>
       <r>     4.3349     7.2890   783.2882 </r>
       <r>     4.4405     1.2727   783.4226 </r>
       <r>     4.5461     5.1771   783.9695 </r>
       <r>     4.6518     0.4039   784.0122 </r>
       <r>     4.7574    -0.1133   784.0002 </r>
       <r>     4.8631    -0.0018   784.0000 </r>
       <r>     4.9687    -0.0000   784.0000 </r>
       <r>     5.0743    -0.0000   784.0000 </r>
       <r>     5.1800    -0.0000   784.0000 </r>
       <r>     5.2856     0.0000   784.0000 </r>
       <r>     5.3912     0.0000   784.0000 </r>
       <r>     5.4969     0.0000   784.0000 </r>
       <r>     5.6025     0.0000   784.0000 </r>
       <r>     5.7082     0.0000   784.0000 </r>
       <r>     5.8138     0.0000   784.0000 </r>
       <r>     5.9194     0.0000   784.0000 </r>
      </set>
     </set>
    </array>
   </total>
  </dos>
 </calculation>
 <structure name="finalpos" >
  <crystal>
   <varray name="basis" >
    <v>      11.21440000       0.00000000       0.00000000 </v>
    <v>       5.60720000       9.71195529       0.00000000 </v>
    <v>       0.00000000       0.00000000      31.44560000 </v>
   </varray>
   <i name="volume">   3424.85826052 </i>
   <varray name="rec_basis" >
    <v>       0.08917107      -0.05148294       0.00000000 </v>
    <v>       0.00000000       0.10296588       0.00000000 </v>
    <v>       0.00000000       0.00000000       0.03180095 </v>
   </varray>
  </crystal>
  <varray name="positions" >
   <v>       0.08333000       0.33333000       0.39081000 </v>
   <v>       0.08333000       0.08333000       0.39081000 </v>
   <v>       0.33333000       0.33333000       0.39081000 </v>
   <v>       0.33333000       0.08333000       0.39081000 </v>
   <v>       0.41667000       0.16667000       0.46360000 </v>
   <v>       0.41667000       0.41667000       0.46360000 </v>
   <v>       0.16667000       0.16667000       0.46360000 </v>
   <v>       0.16667000       0.41667000       0.46360000 </v>
   <v>       0.24951926       0.00055800       0.53568836 </v>
   <v>       0.25027000       0.25008522       0.53529254 </v>
   <v>       0.49956672       0.00097941       0.53535813 </v>
   <v>       0.50056570       0.25220483       0.53764513 </v>
   <v>       0.08260975       0.33384429       0.60889287 </v>
   <v>       0.08260699       0.08451868       0.60893195 </v>
   <v>       0.32672308       0.33478154       0.60874483 </v>
   <v>       0.33224144       0.08424246       0.60900507 </v>
   <v>       0.08333000       0.83333000       0.39081000 </v>
   <v>       0.08333000       0.58333000       0.39081000 </v>
   <v>       0.33333000       0.83333000       0.39081000 </v>
   <v>       0.33333000       0.58333000       0.39081000 </v>
   <v>       0.41667000       0.66667000       0.46360000 </v>
   <v>       0.41667000       0.91667000       0.46360000 </v>
   <v>       0.16667000       0.66667000       0.46360000 </v>
   <v>       0.16667000       0.91667000       0.46360000 </v>
   <v>       0.24958714       0.50038431       0.53571004 </v>
   <v>       0.24980554       0.75046876       0.53524572 </v>
   <v>       0.50016327       0.49905522       0.53723481 </v>
   <v>       0.49955578       0.75018622       0.53528848 </v>
   <v>       0.08218648       0.83526936       0.60887576 </v>
   <v>       0.08092425       0.58532500       0.60893022 </v>
   <v>       0.33206301       0.83519811       0.60887279 </v>
   <v>       0.32651076       0.59018612       0.60847888 </v>
   <v>       0.58333000       0.33333000       0.39081000 </v>
   <v>       0.58333000       0.08333000       0.39081000 </v>
   <v>       0.83333000       0.33333000       0.39081000 </v>
   <v>       0.83333000       0.08333000       0.39081000 </v>
   <v>       0.91667000       0.16667000       0.46360000 </v>
   <v>       0.91667000       0.41667000       0.46360000 </v>
   <v>       0.66667000       0.16667000       0.46360000 </v>
   <v>       0.66667000       0.41667000       0.46360000 </v>
   <v>       0.74955488       0.00058008       0.53573887 </v>
   <v>       0.74565063       0.25257297       0.53808463 </v>
   <v>       0.99858285       0.00156174       0.53543602 </v>
   <v>       0.99880404       0.25035481       0.53534963 </v>
   <v>       0.58219796       0.33511270       0.61475720 </v>
   <v>       0.58235663       0.08014347       0.60874544 </v>
   <v>       0.83706587       0.33472168       0.60899167 </v>
   <v>       0.83621343       0.08030464       0.60906383 </v>
   <v>       0.58333000       0.83333000       0.39081000 </v>
   <v>       0.58333000       0.58333000       0.39081000 </v>
   <v>       0.83333000       0.83333000       0.39081000 </v>
   <v>       0.83333000       0.58333000       0.39081000 </v>
   <v>       0.91667000       0.66667000       0.46360000 </v>
   <v>       0.91667000       0.91667000       0.46360000 </v>
   <v>       0.66667000       0.66667000       0.46360000 </v>
   <v>       0.66667000       0.91667000       0.46360000 </v>
   <v>       0.74961313       0.50030510       0.53576719 </v>
   <v>       0.74955029       0.75044470       0.53567530 </v>
   <v>       0.99989307       0.50000806       0.53566813 </v>
   <v>       0.99964364       0.75056571       0.53563828 </v>
   <v>       0.58177558       0.83488876       0.60890566 </v>
   <v>       0.58256512       0.58969850       0.60862640 </v>
   <v>       0.83260115       0.83398279       0.60900740 </v>
   <v>       0.83285949       0.58515919       0.60895509 </v>
   <v>       0.54177485       0.37748923       0.70897841 </v>
   <v>       0.55833820       0.35952235       0.67214788 </v>
  </varray>
  <varray name="selective"  type="logical" >
   <v type="logical" >  F  F  F </v>
   <v type="logical" >  F  F  F </v>
   <v type="logical" >  F  F  F </v>
   <v type="logical" >  F  F  F </v>
   <v type="logical" >  F  F  F </v>
   <v type="logical" >  F  F  F </v>
   <v type="logical" >  F  F  F </v>
   <v type="logical" >  F  F  F </v>
   <v type="logical" >  F  F  F </v>
   <v type="logical" >  F  F  F </v>
   <v type="logical" >  F  F  F </v>
   <v type="logical" >  F  F  F </v>
   <v type="logical" >  F  F  F </v>
   <v type="logical" >  F  F  F </v>
   <v type="logical" >  F  F  F </v>
   <v type="logical" >  F  F  F </v>
   <v type="logical" >  F  F  F </v>
   <v type="logical" >  F  F  F </v>
   <v type="logical" >  F  F  F </v>
   <v type="logical" >  F  F  F </v>
   <v type="logical" >  F  F  F </v>
   <v type="logical" >  F  F  F </v>
   <v type="logical" >  F  F  F </v>
   <v type="logical" >  F  F  F </v>
   <v type="logical" >  F  F  F </v>
   <v type="logical" >  F  F  F </v>
   <v type="logical" >  F  F  F </v>
   <v type="logical" >  F  F  F </v>
   <v type="logical" >  F  F  F </v>
   <v type="logical" >  F  F  F </v>
   <v type="logical" >  F  F  F </v>
   <v type="logical" >  F  F  F </v>
   <v type="logical" >  F  F  F </v>
   <v type="logical" >  F  F  F </v>
   <v type="logical" >  F  F  F </v>
   <v type="logical" >  F  F  F </v>
   <v type="logical" >  F  F  F </v>
   <v type="logical" >  F  F  F </v>
   <v type="logical" >  F  F  F </v>
   <v type="logical" >  F  F  F </v>
   <v type="logical" >  F  F  F </v>
   <v type="logical" >  F  F  F </v>
   <v type="logical" >  F  F  F </v>
   <v type="logical" >  F  F  F </v>
   <v type="logical" >  F  F  F </v>
   <v type="logical" >  F  F  F </v>
   <v type="logical" >  F  F  F </v>
   <v type="logical" >  F  F  F </v>
   <v type="logical" >  F  F  F </v>
   <v type="logical" >  F  F  F </v>
   <v type="logical" >  F  F  F </v>
   <v type="logical" >  F  F  F </v>
   <v type="logical" >  F  F  F </v>
   <v type="logical" >  F  F  F </v>
   <v type="logical" >  F  F  F </v>
   <v type="logical" >  F  F  F </v>
   <v type="logical" >  F  F  F </v>
   <v type="logical" >  F  F  F </v>
   <v type="logical" >  F  F  F </v>
   <v type="logical" >  F  F  F </v>
   <v type="logical" >  F  F  F </v>
   <v type="logical" >  F  F  F </v>
   <v type="logical" >  F  F  F </v>
   <v type="logical" >  F  F  F </v>
   <v type="logical" >  T  T  T </v>
   <v type="logical" >  T  T  T </v>
  </varray>
  <nose>
   <v>      -3.00000000       0.00000000       0.00010000       0.00010000 </v>
  </nose>
 </structure>
</modeling>
