
     Program PHONON v.7.1 starts on 31May2023 at  9:37: 8 

     This program is part of the open-source Quantum ESPRESSO suite
     for quantum simulation of materials; please cite
         "P. Giannozzi et al., J. Phys.:Condens. Matter 21 395502 (2009);
         "P. Giannozzi et al., J. Phys.:Condens. Matter 29 465901 (2017);
         "P. Giannozzi et al., J. Chem. Phys. 152 154105 (2020);
          URL http://www.quantum-espresso.org", 
     in publications or presentations arising from this work. More details at
     http://www.quantum-espresso.org/quote

     Parallel version (MPI), running on    24 processors

     MPI processes distributed on     1 nodes
     R & G space division:  proc/nbgrp/npool/nimage =      24
     164341 MiB available memory on the printing compute node when the environment starts
 
     Waiting for input...
     Reading input from standard input
      Title line not specified: using 'default'.

     Reading xml data from directory:

     ./pwscf.save/
     file C.pbe-n-kjpaw_psl.1.0.0.UPF: wavefunction(s)  2S 2P renormalized
     file O.pbe-n-kjpaw_psl.0.1.UPF: wavefunction(s)  2P renormalized

     IMPORTANT: XC functional enforced from input :
     Exchange-correlation= PBE
                           (   1   4   3   4   0   0   0)
     Any further DFT definition will be discarded
     Please, verify this is what you really want

 
     Parallelization info
     --------------------
     sticks:   dense  smooth     PW     G-vecs:    dense   smooth      PW
     Min        2273    1136    284               399495   141218   17654
     Max        2274    1137    285               399500   141221   17656
     Sum       54553   27281   6817              9587919  3389267  423701
 
     Using Slab Decomposition
 

     negative rho (up, down):  1.726E-03 1.726E-03
     Reading collected, re-writing distributed wavefunctions

     Calculation of q =    0.0000000   0.0000000   0.0000000

     default                                                                    

     bravais-lattice index     =            0
     lattice parameter (alat)  =      37.7945  a.u.
     unit-cell volume          =   53986.6760 (a.u.)^3
     number of atoms/cell      =            3
     number of atomic types    =            2
     kinetic-energy cut-off    =      60.0000  Ry
     charge density cut-off    =     480.0000  Ry
     convergence threshold     =      1.0E-12
     beta                      =       0.7000
     number of iterations used =            4
     Exchange-correlation= PBE
                           (   1   4   3   4   0   0   0)


     celldm(1)=   37.79452  celldm(2)=    0.00000  celldm(3)=    0.00000
     celldm(4)=    0.00000  celldm(5)=    0.00000  celldm(6)=    0.00000

     crystal axes: (cart. coord. in units of alat)
               a(1) = (  1.0000  0.0000  0.0000 )  
               a(2) = (  0.0000  1.0000  0.0000 )  
               a(3) = (  0.0000  0.0000  1.0000 )  

     reciprocal axes: (cart. coord. in units 2 pi/alat)
               b(1) = (  1.0000  0.0000  0.0000 )  
               b(2) = (  0.0000  1.0000  0.0000 )  
               b(3) = (  0.0000  0.0000  1.0000 )  


     Atoms inside the unit cell: 

     Cartesian axes

     site n.  atom      mass           positions (alat units)
        1     C   12.0110   tau(    1) = (    0.50000    0.50000    0.50000  )
        2     O   15.9990   tau(    2) = (    0.50000    0.50000    0.55862  )
        3     O   15.9990   tau(    3) = (    0.50000    0.50000    0.44138  )

     Computing dynamical matrix for 
                    q = (   0.0000000   0.0000000   0.0000000 )
 
      2 Sym.Ops. (with q -> -q+G )


     G cutoff =17367.5767  ( 399497 G-vectors)     FFT grid: (270,270,270)
     G cutoff = 8683.7884  ( 141218 G-vectors)  smooth grid: (192,192,192)

     number of k points=     2  Gaussian smearing, width (Ry)=  0.0020
                       cart. coord. in units 2pi/alat
        k(    1) = (   0.0000000   0.0000000   0.0000000), wk =   1.0000000
        k(    2) = (   0.0000000   0.0000000   0.0000000), wk =   1.0000000

     PseudoPot. # 1 for C  read from file:
     /home/cjw/pseudopotential/SSSP_1.1.2_PBE_efficiency/C.pbe-n-kjpaw_psl.1.0.0.UPF
     MD5 check sum: 5d2aebdfa2cae82b50a7e79e9516da0f
     Pseudo is Projector augmented-wave + core cor, Zval =  4.0
     Generated using "atomic" code by A. Dal Corso  v.5.1
     Shape of augmentation charge: PSQ
     Using radial grid of 1073 points,  4 beta functions with: 
                l(1) =   0
                l(2) =   0
                l(3) =   1
                l(4) =   1
     Q(r) pseudized with 0 coefficients 


     PseudoPot. # 2 for O  read from file:
     /home/cjw/pseudopotential/SSSP_1.1.2_PBE_efficiency/O.pbe-n-kjpaw_psl.0.1.UPF
     MD5 check sum: 0234752ac141de4415c5fc33072bef88
     Pseudo is Projector augmented-wave + core cor, Zval =  6.0
     Generated using "atomic" code by A. Dal Corso  v.5.0.99 svn rev. 10869
     Shape of augmentation charge: BESSEL
     Using radial grid of 1095 points,  4 beta functions with: 
                l(1) =   0
                l(2) =   0
                l(3) =   1
                l(4) =   1
     Q(r) pseudized with 0 coefficients 


     Mode symmetry, C_1 (1)     point group:

     k=gamma and q=gamma tricks are used


     Atomic displacements:
     There are    9 irreducible representations

     Representation     1      1 modes -  To be done

     Representation     2      1 modes -  To be done

     Representation     3      1 modes -  To be done

     Representation     4      1 modes -  To be done

     Representation     5      1 modes -  To be done

     Representation     6      1 modes -  To be done

     Representation     7      1 modes -  To be done

     Representation     8      1 modes -  To be done

     Representation     9      1 modes -  To be done



     Alpha used in Ewald sum =   2.8000

     negative rho (up, down):  1.726E-03 1.726E-03
     PHONON       :   1m21.41s CPU   1m26.49s WALL



     Representation #   1 mode #   1

     Self-consistent Calculation
 
     Pert. #  1: Fermi energy shift (Ry) =     0.0000E+00     0.0000E+00

      iter #   1 total cpu time :    98.5 secs   av.it.:   5.5
      thresh= 1.000E-02 alpha_mix =  0.700 |ddv_scf|^2 =  1.256E-06
 
     Pert. #  1: Fermi energy shift (Ry) =     0.0000E+00     0.0000E+00

      iter #   2 total cpu time :   116.8 secs   av.it.:  10.0
      thresh= 1.121E-04 alpha_mix =  0.700 |ddv_scf|^2 =  1.044E-07
 
     Pert. #  1: Fermi energy shift (Ry) =     0.0000E+00     0.0000E+00

      iter #   3 total cpu time :   135.2 secs   av.it.:  10.0
      thresh= 3.231E-05 alpha_mix =  0.700 |ddv_scf|^2 =  2.919E-10
 
     Pert. #  1: Fermi energy shift (Ry) =     0.0000E+00     0.0000E+00

      iter #   4 total cpu time :   193.1 secs   av.it.:  12.5
      thresh= 1.709E-06 alpha_mix =  0.700 |ddv_scf|^2 =  3.389E-13

     End of self-consistent calculation

     Convergence has been achieved 


     Representation #   2 mode #   2

     Self-consistent Calculation
 
     Pert. #  1: Fermi energy shift (Ry) =     0.0000E+00     0.0000E+00

      iter #   1 total cpu time :   245.6 secs   av.it.:   5.5
      thresh= 1.000E-02 alpha_mix =  0.700 |ddv_scf|^2 =  5.026E-07
 
     Pert. #  1: Fermi energy shift (Ry) =     0.0000E+00     0.0000E+00

      iter #   2 total cpu time :   309.1 secs   av.it.:  11.0
      thresh= 7.090E-05 alpha_mix =  0.700 |ddv_scf|^2 =  5.013E-08
 
     Pert. #  1: Fermi energy shift (Ry) =     0.0000E+00     0.0000E+00

      iter #   3 total cpu time :   357.8 secs   av.it.:  10.0
      thresh= 2.239E-05 alpha_mix =  0.700 |ddv_scf|^2 =  1.192E-10
 
     Pert. #  1: Fermi energy shift (Ry) =     0.0000E+00     0.0000E+00

      iter #   4 total cpu time :   368.5 secs   av.it.:  13.0
      thresh= 1.092E-06 alpha_mix =  0.700 |ddv_scf|^2 =  1.060E-13

     End of self-consistent calculation

     Convergence has been achieved 


     Representation #   3 mode #   3

     Self-consistent Calculation
 
     Pert. #  1: Fermi energy shift (Ry) =     0.0000E+00     0.0000E+00

      iter #   1 total cpu time :   390.6 secs   av.it.:   6.0
      thresh= 1.000E-02 alpha_mix =  0.700 |ddv_scf|^2 =  1.058E-07
 
     Pert. #  1: Fermi energy shift (Ry) =     0.0000E+00     0.0000E+00

      iter #   2 total cpu time :   411.6 secs   av.it.:  13.0
      thresh= 3.253E-05 alpha_mix =  0.700 |ddv_scf|^2 =  1.392E-06
 
     Pert. #  1: Fermi energy shift (Ry) =     0.0000E+00     0.0000E+00

      iter #   3 total cpu time :   429.4 secs   av.it.:  10.0
      thresh= 1.180E-04 alpha_mix =  0.700 |ddv_scf|^2 =  7.418E-07
 
     Pert. #  1: Fermi energy shift (Ry) =     0.0000E+00     0.0000E+00

      iter #   4 total cpu time :   452.3 secs   av.it.:  11.0
      thresh= 8.613E-05 alpha_mix =  0.700 |ddv_scf|^2 =  1.305E-09
 
     Pert. #  1: Fermi energy shift (Ry) =     0.0000E+00     0.0000E+00

      iter #   5 total cpu time :   511.6 secs   av.it.:  12.0
      thresh= 3.613E-06 alpha_mix =  0.700 |ddv_scf|^2 =  9.439E-11
 
     Pert. #  1: Fermi energy shift (Ry) =     0.0000E+00     0.0000E+00

      iter #   6 total cpu time :   567.2 secs   av.it.:  12.0
      thresh= 9.716E-07 alpha_mix =  0.700 |ddv_scf|^2 =  1.795E-13

     End of self-consistent calculation

     Convergence has been achieved 


     Representation #   4 mode #   4

     Self-consistent Calculation
 
     Pert. #  1: Fermi energy shift (Ry) =     0.0000E+00     0.0000E+00

      iter #   1 total cpu time :   626.2 secs   av.it.:   7.0
      thresh= 1.000E-02 alpha_mix =  0.700 |ddv_scf|^2 =  3.271E-06
 
     Pert. #  1: Fermi energy shift (Ry) =     0.0000E+00     0.0000E+00

      iter #   2 total cpu time :   670.5 secs   av.it.:  12.0
      thresh= 1.809E-04 alpha_mix =  0.700 |ddv_scf|^2 =  2.468E-07
 
     Pert. #  1: Fermi energy shift (Ry) =     0.0000E+00     0.0000E+00

      iter #   3 total cpu time :   686.3 secs   av.it.:  11.5
      thresh= 4.968E-05 alpha_mix =  0.700 |ddv_scf|^2 =  2.632E-09
 
     Pert. #  1: Fermi energy shift (Ry) =     0.0000E+00     0.0000E+00

      iter #   4 total cpu time :   702.1 secs   av.it.:  14.0
      thresh= 5.130E-06 alpha_mix =  0.700 |ddv_scf|^2 =  8.574E-12
 
     Pert. #  1: Fermi energy shift (Ry) =     0.0000E+00     0.0000E+00

      iter #   5 total cpu time :   712.5 secs   av.it.:  14.5
      thresh= 2.928E-07 alpha_mix =  0.700 |ddv_scf|^2 =  3.326E-13

     End of self-consistent calculation

     Convergence has been achieved 


     Representation #   5 mode #   5

     Self-consistent Calculation
 
     Pert. #  1: Fermi energy shift (Ry) =     0.0000E+00     0.0000E+00

      iter #   1 total cpu time :   735.9 secs   av.it.:   7.0
      thresh= 1.000E-02 alpha_mix =  0.700 |ddv_scf|^2 =  1.969E-06
 
     Pert. #  1: Fermi energy shift (Ry) =     0.0000E+00     0.0000E+00

      iter #   2 total cpu time :   754.2 secs   av.it.:  13.0
      thresh= 1.403E-04 alpha_mix =  0.700 |ddv_scf|^2 =  1.684E-07
 
     Pert. #  1: Fermi energy shift (Ry) =     0.0000E+00     0.0000E+00

      iter #   3 total cpu time :   773.4 secs   av.it.:  12.0
      thresh= 4.103E-05 alpha_mix =  0.700 |ddv_scf|^2 =  7.249E-10
 
     Pert. #  1: Fermi energy shift (Ry) =     0.0000E+00     0.0000E+00

      iter #   4 total cpu time :   794.6 secs   av.it.:  14.5
      thresh= 2.692E-06 alpha_mix =  0.700 |ddv_scf|^2 =  2.221E-12
 
     Pert. #  1: Fermi energy shift (Ry) =     0.0000E+00     0.0000E+00

      iter #   5 total cpu time :   841.0 secs   av.it.:  15.0
      thresh= 1.490E-07 alpha_mix =  0.700 |ddv_scf|^2 =  2.622E-13

     End of self-consistent calculation

     Convergence has been achieved 


     Representation #   6 mode #   6

     Self-consistent Calculation
 
     Pert. #  1: Fermi energy shift (Ry) =     0.0000E+00     0.0000E+00

      iter #   1 total cpu time :   900.6 secs   av.it.:   8.0
      thresh= 1.000E-02 alpha_mix =  0.700 |ddv_scf|^2 =  6.994E-06
 
     Pert. #  1: Fermi energy shift (Ry) =     0.0000E+00     0.0000E+00

      iter #   2 total cpu time :   960.2 secs   av.it.:  11.0
      thresh= 2.645E-04 alpha_mix =  0.700 |ddv_scf|^2 =  1.843E-06
 
     Pert. #  1: Fermi energy shift (Ry) =     0.0000E+00     0.0000E+00

      iter #   3 total cpu time :   999.9 secs   av.it.:  14.0
      thresh= 1.358E-04 alpha_mix =  0.700 |ddv_scf|^2 =  6.114E-06
 
     Pert. #  1: Fermi energy shift (Ry) =     0.0000E+00     0.0000E+00

      iter #   4 total cpu time :  1015.9 secs   av.it.:  13.0
      thresh= 2.473E-04 alpha_mix =  0.700 |ddv_scf|^2 =  2.410E-08
 
     Pert. #  1: Fermi energy shift (Ry) =     0.0000E+00     0.0000E+00

      iter #   5 total cpu time :  1032.7 secs   av.it.:  14.0
      thresh= 1.552E-05 alpha_mix =  0.700 |ddv_scf|^2 =  1.268E-07
 
     Pert. #  1: Fermi energy shift (Ry) =     0.0000E+00     0.0000E+00

      iter #   6 total cpu time :  1049.3 secs   av.it.:  12.0
      thresh= 3.561E-05 alpha_mix =  0.700 |ddv_scf|^2 =  9.643E-09
 
     Pert. #  1: Fermi energy shift (Ry) =     0.0000E+00     0.0000E+00

      iter #   7 total cpu time :  1069.8 secs   av.it.:  12.0
      thresh= 9.820E-06 alpha_mix =  0.700 |ddv_scf|^2 =  4.285E-12
 
     Pert. #  1: Fermi energy shift (Ry) =     0.0000E+00     0.0000E+00

      iter #   8 total cpu time :  1110.9 secs   av.it.:  12.0
      thresh= 2.070E-07 alpha_mix =  0.700 |ddv_scf|^2 =  3.213E-13

     End of self-consistent calculation

     Convergence has been achieved 


     Representation #   7 mode #   7

     Self-consistent Calculation
 
     Pert. #  1: Fermi energy shift (Ry) =     0.0000E+00     0.0000E+00

      iter #   1 total cpu time :  1131.8 secs   av.it.:   7.0
      thresh= 1.000E-02 alpha_mix =  0.700 |ddv_scf|^2 =  2.465E-06
 
     Pert. #  1: Fermi energy shift (Ry) =     0.0000E+00     0.0000E+00

      iter #   2 total cpu time :  1147.0 secs   av.it.:  12.5
      thresh= 1.570E-04 alpha_mix =  0.700 |ddv_scf|^2 =  1.574E-07
 
     Pert. #  1: Fermi energy shift (Ry) =     0.0000E+00     0.0000E+00

      iter #   3 total cpu time :  1162.6 secs   av.it.:  12.0
      thresh= 3.968E-05 alpha_mix =  0.700 |ddv_scf|^2 =  3.451E-09
 
     Pert. #  1: Fermi energy shift (Ry) =     0.0000E+00     0.0000E+00

      iter #   4 total cpu time :  1178.8 secs   av.it.:  13.0
      thresh= 5.874E-06 alpha_mix =  0.700 |ddv_scf|^2 =  6.708E-11
 
     Pert. #  1: Fermi energy shift (Ry) =     0.0000E+00     0.0000E+00

      iter #   5 total cpu time :  1194.9 secs   av.it.:  14.0
      thresh= 8.191E-07 alpha_mix =  0.700 |ddv_scf|^2 =  1.427E-12
 
     Pert. #  1: Fermi energy shift (Ry) =     0.0000E+00     0.0000E+00

      iter #   6 total cpu time :  1206.1 secs   av.it.:  14.5
      thresh= 1.195E-07 alpha_mix =  0.700 |ddv_scf|^2 =  6.430E-15

     End of self-consistent calculation

     Convergence has been achieved 


     Representation #   8 mode #   8

     Self-consistent Calculation
 
     Pert. #  1: Fermi energy shift (Ry) =     0.0000E+00     0.0000E+00

      iter #   1 total cpu time :  1225.5 secs   av.it.:   7.0
      thresh= 1.000E-02 alpha_mix =  0.700 |ddv_scf|^2 =  1.329E-07
 
     Pert. #  1: Fermi energy shift (Ry) =     0.0000E+00     0.0000E+00

      iter #   2 total cpu time :  1241.7 secs   av.it.:  14.0
      thresh= 3.645E-05 alpha_mix =  0.700 |ddv_scf|^2 =  1.427E-08
 
     Pert. #  1: Fermi energy shift (Ry) =     0.0000E+00     0.0000E+00

      iter #   3 total cpu time :  1258.6 secs   av.it.:  14.0
      thresh= 1.195E-05 alpha_mix =  0.700 |ddv_scf|^2 =  2.372E-10
 
     Pert. #  1: Fermi energy shift (Ry) =     0.0000E+00     0.0000E+00

      iter #   4 total cpu time :  1269.1 secs   av.it.:  15.0
      thresh= 1.540E-06 alpha_mix =  0.700 |ddv_scf|^2 =  5.506E-13

     End of self-consistent calculation

     Convergence has been achieved 


     Representation #   9 mode #   9

     Self-consistent Calculation
 
     Pert. #  1: Fermi energy shift (Ry) =     0.0000E+00     0.0000E+00

      iter #   1 total cpu time :  1288.8 secs   av.it.:   8.0
      thresh= 1.000E-02 alpha_mix =  0.700 |ddv_scf|^2 =  1.679E-06
 
     Pert. #  1: Fermi energy shift (Ry) =     0.0000E+00     0.0000E+00

      iter #   2 total cpu time :  1304.1 secs   av.it.:  12.0
      thresh= 1.296E-04 alpha_mix =  0.700 |ddv_scf|^2 =  1.259E-07
 
     Pert. #  1: Fermi energy shift (Ry) =     0.0000E+00     0.0000E+00

      iter #   3 total cpu time :  1323.9 secs   av.it.:  14.0
      thresh= 3.548E-05 alpha_mix =  0.700 |ddv_scf|^2 =  1.238E-06
 
     Pert. #  1: Fermi energy shift (Ry) =     0.0000E+00     0.0000E+00

      iter #   4 total cpu time :  1366.5 secs   av.it.:  12.0
      thresh= 1.113E-04 alpha_mix =  0.700 |ddv_scf|^2 =  6.655E-08
 
     Pert. #  1: Fermi energy shift (Ry) =     0.0000E+00     0.0000E+00

      iter #   5 total cpu time :  1384.8 secs   av.it.:  13.0
      thresh= 2.580E-05 alpha_mix =  0.700 |ddv_scf|^2 =  3.364E-08
 
     Pert. #  1: Fermi energy shift (Ry) =     0.0000E+00     0.0000E+00

      iter #   6 total cpu time :  1400.9 secs   av.it.:  12.0
      thresh= 1.834E-05 alpha_mix =  0.700 |ddv_scf|^2 =  3.327E-09
 
     Pert. #  1: Fermi energy shift (Ry) =     0.0000E+00     0.0000E+00

      iter #   7 total cpu time :  1419.4 secs   av.it.:  12.0
      thresh= 5.768E-06 alpha_mix =  0.700 |ddv_scf|^2 =  2.663E-12
 
     Pert. #  1: Fermi energy shift (Ry) =     0.0000E+00     0.0000E+00

      iter #   8 total cpu time :  1430.4 secs   av.it.:  12.0
      thresh= 1.632E-07 alpha_mix =  0.700 |ddv_scf|^2 =  3.673E-14

     End of self-consistent calculation

     Convergence has been achieved 
 
     Number of q in the star =    1
     List of q in the star:
          1   0.000000000   0.000000000   0.000000000

     Diagonalizing the dynamical matrix

     q = (    0.000000000   0.000000000   0.000000000 ) 

 **************************************************************************
     freq (    1) =      -6.577801 [THz] =    -219.411827 [cm-1]
     freq (    2) =      -5.552049 [THz] =    -185.196412 [cm-1]
     freq (    3) =      -1.673580 [THz] =     -55.824616 [cm-1]
     freq (    4) =       1.111309 [THz] =      37.069294 [cm-1]
     freq (    5) =       1.632140 [THz] =      54.442316 [cm-1]
     freq (    6) =      19.197687 [THz] =     640.365922 [cm-1]
     freq (    7) =      19.355613 [THz] =     645.633767 [cm-1]
     freq (    8) =      39.545733 [THz] =    1319.103665 [cm-1]
     freq (    9) =      70.541963 [THz] =    2353.026606 [cm-1]
 **************************************************************************

     Mode symmetry, C_1 (1)     point group:

     freq (   1-   1) =       -219.4  [cm-1]   -->   ?
     freq (   2-   2) =       -185.2  [cm-1]   -->   ?
     freq (   3-   3) =        -55.8  [cm-1]   -->   ?
     freq (   4-   4) =         37.1  [cm-1]   -->   ?
     freq (   5-   5) =         54.4  [cm-1]   -->   ?
     freq (   6-   6) =        640.4  [cm-1]   --> A               I+R
     freq (   7-   7) =        645.6  [cm-1]   --> A               I+R
     freq (   8-   8) =       1319.1  [cm-1]   --> A               I+R
     freq (   9-   9) =       2353.0  [cm-1]   --> A               I+R
 
     PHONON       :  17m59.71s CPU  23m59.94s WALL

     INITIALIZATION: 
     phq_setup    :      4.01s CPU      5.10s WALL (       1 calls)
     phq_init     :     69.51s CPU     71.68s WALL (       1 calls)
 
     phq_init     :     69.51s CPU     71.68s WALL (       1 calls)
     set_drhoc    :     16.99s CPU     17.09s WALL (       3 calls)
     init_vloc    :      0.15s CPU      0.15s WALL (       1 calls)
     init_us_1    :      0.01s CPU      0.01s WALL (       1 calls)
     init_us_2    :      0.51s CPU      0.59s WALL (     160 calls)
     newd         :      0.48s CPU      0.87s WALL (       1 calls)
     dvanqq       :     29.13s CPU     29.56s WALL (       1 calls)
     drho         :     16.46s CPU     17.83s WALL (       1 calls)
 
     DYNAMICAL MATRIX:
     dynmat0      :     13.97s CPU     14.29s WALL (       1 calls)
     phqscf       :    998.12s CPU   1352.73s WALL (       1 calls)
     dynmatrix    :      0.19s CPU      0.19s WALL (       1 calls)
 
     phqscf       :    998.12s CPU   1352.73s WALL (       1 calls)
     solve_linter :    992.52s CPU   1336.88s WALL (       9 calls)
     drhodv       :      5.06s CPU      5.42s WALL (       9 calls)
 
     dynmat0      :     13.97s CPU     14.29s WALL (       1 calls)
     dynmat_us    :      0.41s CPU      0.42s WALL (       1 calls)
     d2ionq       :      0.20s CPU      0.20s WALL (       1 calls)
     dynmatcc     :     13.17s CPU     13.47s WALL (       1 calls)
 
     dynmat_us    :      0.41s CPU      0.42s WALL (       1 calls)
     addusdynmat  :      0.00s CPU      0.00s WALL (       1 calls)
 
     phqscf       :    998.12s CPU   1352.73s WALL (       1 calls)
     solve_linter :    992.52s CPU   1336.88s WALL (       9 calls)
 
     solve_linter :    992.52s CPU   1336.88s WALL (       9 calls)
     dvqpsi_us    :     15.03s CPU     15.76s WALL (      18 calls)
     sth_kernel   :    615.58s CPU    640.31s WALL (      50 calls)
     apply_dpot_b :     32.76s CPU     33.92s WALL (      82 calls)
     ortho        :      2.49s CPU      2.59s WALL (     100 calls)
     cgsolve      :    534.55s CPU    556.48s WALL (     100 calls)
     incdrhoscf   :     43.25s CPU     44.19s WALL (     100 calls)
     addusddens   :     86.08s CPU     90.65s WALL (      59 calls)
     dv_of_drho   :     75.20s CPU     90.73s WALL (      50 calls)
     mix_pot      :      7.14s CPU    212.84s WALL (      50 calls)
     ef_shift     :      8.86s CPU      9.82s WALL (      50 calls)
     ef_shift_wfc :      0.01s CPU      0.09s WALL (       9 calls)
     localdos     :     25.51s CPU     26.27s WALL (       9 calls)
     newdq        :     63.59s CPU     67.00s WALL (      50 calls)
     adddvscf     :      0.82s CPU      0.83s WALL (      82 calls)
     drhodvus     :      0.98s CPU      1.91s WALL (       9 calls)
 
     dvqpsi_us    :     15.03s CPU     15.76s WALL (      18 calls)
     dvqpsi_us_on :      0.17s CPU      0.17s WALL (      18 calls)
 
     cgsolve      :    534.55s CPU    556.48s WALL (     100 calls)
     ch_psi       :    505.35s CPU    526.38s WALL (    1648 calls)
 
     ch_psi       :    505.35s CPU    526.38s WALL (    1648 calls)
     h_psi        :    470.89s CPU    490.97s WALL (    1648 calls)
     last         :     29.40s CPU     30.25s WALL (    1648 calls)
 
     h_psi        :    470.89s CPU    490.97s WALL (    1648 calls)
     add_vuspsi   :      2.95s CPU      2.99s WALL (    1648 calls)
 
     incdrhoscf   :     43.25s CPU     44.19s WALL (     100 calls)
     addusdbec    :      1.30s CPU      1.34s WALL (     118 calls)
 
     drhodvus     :      0.98s CPU      1.91s WALL (       9 calls)
 
      General routines
     calbec       :     35.05s CPU     36.21s WALL (    3624 calls)
     fft          :    100.91s CPU    113.18s WALL (    2053 calls)
     ffts         :     17.02s CPU     17.99s WALL (     490 calls)
     fftw         :    511.29s CPU    532.87s WALL (   22650 calls)
     davcio       :      0.15s CPU      8.50s WALL (     956 calls)
     write_rec    :      1.50s CPU     92.72s WALL (      59 calls)
 
 
     PHONON       :  17m59.71s CPU  23m59.95s WALL

 
   This run was terminated on:  10: 1: 8  31May2023            

=------------------------------------------------------------------------------=
   JOB DONE.
=------------------------------------------------------------------------------=
