
     Program PWSCF v.7.2 starts on  6Jun2023 at 20: 6: 4 

     This program is part of the open-source Quantum ESPRESSO suite
     for quantum simulation of materials; please cite
         "P. Giannozzi et al., J. Phys.:Condens. Matter 21 395502 (2009);
         "P. Giannozzi et al., J. Phys.:Condens. Matter 29 465901 (2017);
         "P. Giannozzi et al., J. Chem. Phys. 152 154105 (2020);
          URL http://www.quantum-espresso.org", 
     in publications or presentations arising from this work. More details at
     http://www.quantum-espresso.org/quote

     Parallel version (MPI), running on     8 processors

     MPI processes distributed on     1 nodes
     15395 MiB available memory on the printing compute node when the environment starts

     Waiting for input...
     Reading input from standard input

     Current dimensions of program PWSCF are:
     Max number of different atomic species (ntypx) = 10
     Max number of k-points (npk) =  40000
     Max angular momentum in pseudopotentials (lmaxx) =  4
     file C.pbe-n-kjpaw_psl.1.0.0.UPF: wavefunction(s)  2S 2P renormalized
     file O.pbe-n-kjpaw_psl.1.0.0.UPF: wavefunction(s)  2S 2P renormalized
     Message from routine set_cutoff:
     ecutrho < 4*ecutwfc, are you sure?
     Message from routine setup:
     using ibrav=0 with symmetry is DISCOURAGED, use correct ibrav instead

     R & G space division:  proc/nbgrp/npool/nimage =       8
     Subspace diagonalization in iterative solution of the eigenvalue problem:
     a serial algorithm will be used


     Parallelization info
     --------------------
     sticks:   dense  smooth     PW     G-vecs:    dense   smooth      PW
     Min         798     798    235                48072    48072    7679
     Max         799     799    236                48075    48075    7682
     Sum        6385    6385   1885               384587   384587   61445

     Using Slab Decomposition


     Title: 
     CO(SCF)                                                                    


     bravais-lattice index     =            0
     lattice parameter (alat)  =      28.3459  a.u.
     unit-cell volume          =   22775.6289 (a.u.)^3
     number of atoms/cell      =            2
     number of atomic types    =            2
     number of electrons       =        10.00
     number of Kohn-Sham states=            9
     kinetic-energy cutoff     =      29.4000  Ry
     charge density cutoff     =     100.0000  Ry
     scf convergence threshold =      1.0E-06
     mixing beta               =       0.7000
     number of iterations used =            8  plain     mixing
     energy convergence thresh.=      1.0E-04
     force convergence thresh. =      1.0E-03
     Exchange-correlation= SLA  PW   PBX  PBC
                           (   1   4   3   4   0   0   0)
     nstep                     =           50


     celldm(1)=  28.345892  celldm(2)=   0.000000  celldm(3)=   0.000000
     celldm(4)=   0.000000  celldm(5)=   0.000000  celldm(6)=   0.000000

     crystal axes: (cart. coord. in units of alat)
               a(1) = (   1.000000   0.000000   0.000000 )  
               a(2) = (   0.000000   1.000000   0.000000 )  
               a(3) = (   0.000000   0.000000   1.000000 )  

     reciprocal axes: (cart. coord. in units 2 pi/alat)
               b(1) = (  1.000000  0.000000  0.000000 )  
               b(2) = (  0.000000  1.000000  0.000000 )  
               b(3) = (  0.000000  0.000000  1.000000 )  


     PseudoPot. # 1 for C  read from file:
     /home/hham/.pseudopot/C.pbe-n-kjpaw_psl.1.0.0.UPF
     MD5 check sum: 6fec8efd722f5d988670a8dc528584a2
     Pseudo is Projector augmented-wave + core cor, Zval =  4.0
     Generated using "atomic" code by A. Dal Corso  v.5.1.2
     Shape of augmentation charge: PSQ
     Using radial grid of 1073 points,  4 beta functions with: 
                l(1) =   0
                l(2) =   0
                l(3) =   1
                l(4) =   1
     Q(r) pseudized with 0 coefficients 


     PseudoPot. # 2 for O  read from file:
     /home/hham/.pseudopot/O.pbe-n-kjpaw_psl.1.0.0.UPF
     MD5 check sum: 2dcd67f835f9a12042f32bdaf0e8bcf6
     Pseudo is Projector augmented-wave + core cor, Zval =  6.0
     Generated using "atomic" code by A. Dal Corso  v.5.1.2
     Shape of augmentation charge: PSQ
     Using radial grid of 1095 points,  4 beta functions with: 
                l(1) =   0
                l(2) =   0
                l(3) =   1
                l(4) =   1
     Q(r) pseudized with 0 coefficients 


     atomic species   valence    mass     pseudopotential
        C              4.00    12.01000     C ( 1.00)
        O              6.00    15.99000     O ( 1.00)

     Starting magnetic structure 
     atomic species   magnetization
        C            1.000
        O            1.000

      8 Sym. Ops. (no inversion) found ( 6 have fractional translation)



   Cartesian axes

     site n.     atom                  positions (alat units)
         1           C   tau(   1) = (   0.3333333   0.3333333   0.3333333  )
         2           O   tau(   2) = (   0.4133333   0.3333333   0.3333333  )

     number of k points=     1  Gaussian smearing, width (Ry)=  0.0037
                       cart. coord. in units 2pi/alat
        k(    1) = (   0.0000000   0.0000000   0.0000000), wk =   1.0000000

     Dense  grid:   384587 G-vectors     FFT dimensions: (  96,  96,  96)

     Estimated max dynamical RAM per process >      86.44 MB

     Estimated total dynamical RAM >     691.51 MB

     Check: negative core charge=   -0.000037
     Generating pointlists ...
     new r_m :   0.0330 (alat units)  0.9354 (a.u.) for type    1
     new r_m :   0.0330 (alat units)  0.9354 (a.u.) for type    2

     Initial potential from superposition of free atoms

     starting charge      10.0000, renormalised to      10.0000

     negative rho (up, down):  3.203E-01 3.073E-17
     Starting wfcs are    8 randomized atomic wfcs +    1 random wfcs
     Checking if some PAW data can be deallocated... 

     total cpu time spent up to now is        0.8 secs

     Self-consistent Calculation

     iteration #  1     ecut=    29.40 Ry     beta= 0.70
     Davidson diagonalization with overlap
     ethr =  1.00E-02,  avg # of iterations =  8.0

     negative rho (up, down):  2.791E-01 4.974E-02

     total cpu time spent up to now is        1.8 secs

     total energy              =     -58.51150017 Ry
     estimated scf accuracy    <       0.65659855 Ry

     total magnetization       =     4.00 Bohr mag/cell
     absolute magnetization    =     4.49 Bohr mag/cell

     iteration #  2     ecut=    29.40 Ry     beta= 0.70
     Davidson diagonalization with overlap
     ethr =  6.57E-03,  avg # of iterations =  3.0

     negative rho (up, down):  2.727E-01 8.199E-02

     total cpu time spent up to now is        2.6 secs

     total energy              =     -59.52066780 Ry
     estimated scf accuracy    <       2.11626713 Ry

     total magnetization       =    -0.00 Bohr mag/cell
     absolute magnetization    =     0.68 Bohr mag/cell

     iteration #  3     ecut=    29.40 Ry     beta= 0.70
     Davidson diagonalization with overlap
     ethr =  6.57E-03,  avg # of iterations =  1.5

     negative rho (up, down):  2.142E-01 1.567E-01

     total cpu time spent up to now is        3.4 secs

     total energy              =     -59.63743852 Ry
     estimated scf accuracy    <       0.68775890 Ry

     total magnetization       =    -0.00 Bohr mag/cell
     absolute magnetization    =     0.54 Bohr mag/cell

     iteration #  4     ecut=    29.40 Ry     beta= 0.70
     Davidson diagonalization with overlap
     ethr =  6.57E-03,  avg # of iterations =  3.0

     negative rho (up, down):  1.606E-01 1.969E-01

     total cpu time spent up to now is        4.2 secs

     total energy              =     -59.73126148 Ry
     estimated scf accuracy    <       0.44820940 Ry

     total magnetization       =     0.00 Bohr mag/cell
     absolute magnetization    =     0.20 Bohr mag/cell

     iteration #  5     ecut=    29.40 Ry     beta= 0.70
     Davidson diagonalization with overlap
     ethr =  4.48E-03,  avg # of iterations =  1.5

     negative rho (up, down):  1.797E-01 1.791E-01

     total cpu time spent up to now is        5.1 secs

     total energy              =     -59.87412834 Ry
     estimated scf accuracy    <       0.06658924 Ry

     total magnetization       =     0.00 Bohr mag/cell
     absolute magnetization    =     0.14 Bohr mag/cell

     iteration #  6     ecut=    29.40 Ry     beta= 0.70
     Davidson diagonalization with overlap
     ethr =  6.66E-04,  avg # of iterations =  1.5

     negative rho (up, down):  1.783E-01 1.808E-01

     total cpu time spent up to now is        5.9 secs

     total energy              =     -59.88173883 Ry
     estimated scf accuracy    <       0.00361138 Ry

     total magnetization       =    -0.00 Bohr mag/cell
     absolute magnetization    =     0.05 Bohr mag/cell

     iteration #  7     ecut=    29.40 Ry     beta= 0.70
     Davidson diagonalization with overlap
     ethr =  3.61E-05,  avg # of iterations =  7.0

     negative rho (up, down):  1.795E-01 1.809E-01

     total cpu time spent up to now is        6.9 secs

     total energy              =     -59.88172293 Ry
     estimated scf accuracy    <       0.00183067 Ry

     total magnetization       =     0.00 Bohr mag/cell
     absolute magnetization    =     0.02 Bohr mag/cell

     iteration #  8     ecut=    29.40 Ry     beta= 0.70
     Davidson diagonalization with overlap
     ethr =  1.83E-05,  avg # of iterations =  2.0

     negative rho (up, down):  1.803E-01 1.802E-01

     total cpu time spent up to now is        7.7 secs

     total energy              =     -59.88209315 Ry
     estimated scf accuracy    <       0.00004926 Ry

     total magnetization       =     0.00 Bohr mag/cell
     absolute magnetization    =     0.01 Bohr mag/cell

     iteration #  9     ecut=    29.40 Ry     beta= 0.70
     Davidson diagonalization with overlap
     ethr =  4.93E-07,  avg # of iterations = 10.5

     negative rho (up, down):  1.802E-01 1.802E-01

     total cpu time spent up to now is        8.8 secs

     total energy              =     -59.88212818 Ry
     estimated scf accuracy    <       0.00000411 Ry

     total magnetization       =    -0.00 Bohr mag/cell
     absolute magnetization    =     0.00 Bohr mag/cell

     iteration # 10     ecut=    29.40 Ry     beta= 0.70
     Davidson diagonalization with overlap
     ethr =  4.11E-08,  avg # of iterations =  2.5

     negative rho (up, down):  1.802E-01 1.803E-01

     total cpu time spent up to now is        9.7 secs

     total energy              =     -59.88212897 Ry
     estimated scf accuracy    <       0.00000267 Ry

     total magnetization       =    -0.00 Bohr mag/cell
     absolute magnetization    =     0.00 Bohr mag/cell

     iteration # 11     ecut=    29.40 Ry     beta= 0.70
     Davidson diagonalization with overlap
     ethr =  2.67E-08,  avg # of iterations =  1.5

     negative rho (up, down):  1.802E-01 1.802E-01

     Magnetic moment per site  (integrated on atomic sphere of radius R)
     atom   1 (R=0.033)  charge=  1.0253  magn=  0.0001
     atom   2 (R=0.033)  charge=  2.9352  magn= -0.0003

     total cpu time spent up to now is       10.4 secs

     End of self-consistent calculation

 ------ SPIN UP ------------


          k = 0.0000 0.0000 0.0000 ( 61445 PWs)   bands (ev):

   -28.7582 -14.2855 -11.2630 -11.2630  -9.1724  -2.6284  -2.6284  -1.4650
    -0.8207

 ------ SPIN DOWN ----------


          k = 0.0000 0.0000 0.0000 ( 61445 PWs)   bands (ev):

   -28.7599 -14.2864 -11.2639 -11.2639  -9.1711  -2.6289  -2.6288  -1.4650
    -0.8231

     the Fermi energy is    -7.5555 ev

!    total energy              =     -59.88212972 Ry
     total all-electron energy =      -226.493118 Ry
     estimated scf accuracy    <       0.00000034 Ry
     smearing contrib. (-TS)   =      -0.00000000 Ry
     internal energy E=F+TS    =     -59.88212972 Ry

     The total energy is F=E-TS. E is the sum of the following terms:
     one-electron contribution =     -90.13256683 Ry
     hartree contribution      =      46.40456370 Ry
     xc contribution           =     -11.55860362 Ry
     ewald contribution        =      11.18044792 Ry
     one-center paw contrib.   =     -15.77597089 Ry

     total magnetization       =     0.00 Bohr mag/cell
     absolute magnetization    =     0.00 Bohr mag/cell

     convergence has been achieved in  11 iterations

     negative rho (up, down):  1.802E-01 1.802E-01

     Forces acting on atoms (cartesian axes, Ry/au):

     atom    1 type  1   force =     0.13717190    0.00000000    0.00000000
     atom    2 type  2   force =    -0.13717190    0.00000000    0.00000000
     The non-local contrib.  to forces
     atom    1 type  1   force =     1.21889282    0.00000000    0.00000000
     atom    2 type  2   force =    -2.47201589    0.00000000    0.00000000
     The ionic contribution  to forces
     atom    1 type  1   force =    -9.31388416   -0.00000000   -0.00000000
     atom    2 type  2   force =     9.31388416    0.00000000   -0.00000000
     The local contribution  to forces
     atom    1 type  1   force =     8.22734216    0.00000000    0.00000000
     atom    2 type  2   force =    -6.98712909    0.00000000    0.00000000
     The core correction contribution to forces
     atom    1 type  1   force =     0.00249362   -0.00000000    0.00000000
     atom    2 type  2   force =     0.00545906    0.00000000    0.00000000
     The Hubbard contrib.    to forces
     atom    1 type  1   force =     0.00000000    0.00000000    0.00000000
     atom    2 type  2   force =     0.00000000    0.00000000    0.00000000
     The SCF correction term to forces
     atom    1 type  1   force =     0.00061473   -0.00000000   -0.00000000
     atom    2 type  2   force =     0.00091714    0.00000000   -0.00000000

     Total force =     0.193990     Total SCF correction =     0.001104

     BFGS Geometry Optimization
     Energy error            =      0.0E+00 Ry
     Gradient error          =      1.4E-01 Ry/Bohr

     number of scf cycles    =   1
     number of bfgs steps    =   0

     energy             new  =     -59.8821297187 Ry

     new trust radius        =       0.1371718975 bohr
     new conv_thr            =       0.0000010000 Ry


ATOMIC_POSITIONS (angstrom)
C             5.0725882421        5.0000000000        5.0000000000
O             6.1274117579        5.0000000000        5.0000000000



     Writing config-only to output data dir ./CO.save/
     NEW-OLD atomic charge density approx. for the potential

     Check: negative core charge=   -0.000038

     negative rho (up, down):  1.671E-01 1.672E-01
     Generating pointlists ...
     new r_m :   0.0290 (alat units)  0.8222 (a.u.) for type    1
     new r_m :   0.0290 (alat units)  0.8222 (a.u.) for type    2

     total cpu time spent up to now is       11.4 secs

     Self-consistent Calculation

     iteration #  1     ecut=    29.40 Ry     beta= 0.70
     Davidson diagonalization with overlap
     ethr =  1.00E-06,  avg # of iterations = 10.0

     negative rho (up, down):  1.898E-01 1.899E-01

     total cpu time spent up to now is       12.8 secs

     total energy              =     -59.81497471 Ry
     estimated scf accuracy    <       0.03592306 Ry

     total magnetization       =     0.00 Bohr mag/cell
     absolute magnetization    =     0.00 Bohr mag/cell

     iteration #  2     ecut=    29.40 Ry     beta= 0.70
     Davidson diagonalization with overlap
     ethr =  3.59E-04,  avg # of iterations =  2.0

     negative rho (up, down):  1.945E-01 1.945E-01

     total cpu time spent up to now is       13.6 secs

     total energy              =     -59.82308450 Ry
     estimated scf accuracy    <       0.00423310 Ry

     total magnetization       =     0.00 Bohr mag/cell
     absolute magnetization    =     0.00 Bohr mag/cell

     iteration #  3     ecut=    29.40 Ry     beta= 0.70
     Davidson diagonalization with overlap
     ethr =  4.23E-05,  avg # of iterations =  2.0

     negative rho (up, down):  1.949E-01 1.949E-01

     total cpu time spent up to now is       14.5 secs

     total energy              =     -59.82403460 Ry
     estimated scf accuracy    <       0.00207306 Ry

     total magnetization       =     0.00 Bohr mag/cell
     absolute magnetization    =     0.00 Bohr mag/cell

     iteration #  4     ecut=    29.40 Ry     beta= 0.70
     Davidson diagonalization with overlap
     ethr =  2.07E-05,  avg # of iterations =  2.0

     negative rho (up, down):  1.971E-01 1.971E-01

     total cpu time spent up to now is       15.3 secs

     total energy              =     -59.82441809 Ry
     estimated scf accuracy    <       0.00003279 Ry

     total magnetization       =     0.00 Bohr mag/cell
     absolute magnetization    =     0.00 Bohr mag/cell

     iteration #  5     ecut=    29.40 Ry     beta= 0.70
     Davidson diagonalization with overlap
     ethr =  3.28E-07,  avg # of iterations =  8.0

     negative rho (up, down):  1.975E-01 1.976E-01

     total cpu time spent up to now is       16.3 secs

     total energy              =     -59.82442364 Ry
     estimated scf accuracy    <       0.00000596 Ry

     total magnetization       =    -0.00 Bohr mag/cell
     absolute magnetization    =     0.00 Bohr mag/cell

     iteration #  6     ecut=    29.40 Ry     beta= 0.70
     Davidson diagonalization with overlap
     ethr =  5.96E-08,  avg # of iterations =  2.0

     negative rho (up, down):  1.976E-01 1.976E-01

     Magnetic moment per site  (integrated on atomic sphere of radius R)
     atom   1 (R=0.029)  charge=  0.8000  magn=  0.0000
     atom   2 (R=0.029)  charge=  2.3585  magn=  0.0000

     total cpu time spent up to now is       17.1 secs

     End of self-consistent calculation

 ------ SPIN UP ------------


          k = 0.0000 0.0000 0.0000 ( 61445 PWs)   bands (ev):

   -30.8760 -14.1318 -12.5803 -12.5803  -8.7890  -1.4421  -1.3619  -1.3619
    -0.8004

 ------ SPIN DOWN ----------


          k = 0.0000 0.0000 0.0000 ( 61445 PWs)   bands (ev):

   -30.8760 -14.1318 -12.5803 -12.5803  -8.7890  -1.4421  -1.3618  -1.3618
    -0.7978

     the Fermi energy is    -8.0674 ev

!    total energy              =     -59.82442346 Ry
     total all-electron energy =      -226.435412 Ry
     estimated scf accuracy    <       0.00000015 Ry
     smearing contrib. (-TS)   =      -0.00000000 Ry
     internal energy E=F+TS    =     -59.82442346 Ry

     The total energy is F=E-TS. E is the sum of the following terms:
     one-electron contribution =     -94.99058373 Ry
     hartree contribution      =      48.71084828 Ry
     xc contribution           =     -11.85064660 Ry
     ewald contribution        =      14.08844999 Ry
     one-center paw contrib.   =     -15.78249140 Ry

     total magnetization       =    -0.00 Bohr mag/cell
     absolute magnetization    =     0.00 Bohr mag/cell

     convergence has been achieved in   6 iterations

     negative rho (up, down):  1.976E-01 1.976E-01

     Forces acting on atoms (cartesian axes, Ry/au):

     atom    1 type  1   force =    -0.68159727    0.00000000    0.00000000
     atom    2 type  2   force =     0.68159727    0.00000000    0.00000000
     The non-local contrib.  to forces
     atom    1 type  1   force =     0.83956525    0.00000000    0.00000000
     atom    2 type  2   force =    -2.44850082    0.00000000    0.00000000
     The ionic contribution  to forces
     atom    1 type  1   force =   -12.06261620   -0.00000000   -0.00000000
     atom    2 type  2   force =    12.06261620    0.00000000   -0.00000000
     The local contribution  to forces
     atom    1 type  1   force =    10.52625359    0.00000000    0.00000000
     atom    2 type  2   force =    -8.93577179    0.00000000    0.00000000
     The core correction contribution to forces
     atom    1 type  1   force =     0.02179972   -0.00000000   -0.00000000
     atom    2 type  2   force =     0.00858357    0.00000000    0.00000000
     The Hubbard contrib.    to forces
     atom    1 type  1   force =     0.00000000    0.00000000    0.00000000
     atom    2 type  2   force =     0.00000000    0.00000000    0.00000000
     The SCF correction term to forces
     atom    1 type  1   force =    -0.00016829    0.00000000   -0.00000000
     atom    2 type  2   force =     0.00110145    0.00000000   -0.00000000

     Total force =     0.963924     Total SCF correction =     0.001114
     Energy error            =      5.8E-02 Ry
     Gradient error          =      6.8E-01 Ry/Bohr

     number of scf cycles    =   2
     number of bfgs steps    =   1

     energy             old  =     -59.8821297187 Ry
     energy             new  =     -59.8244234633 Ry

     CASE: energy            _new > energy            _old

     new trust radius        =       0.0270724187 bohr
     new conv_thr            =       0.0000010000 Ry


ATOMIC_POSITIONS (angstrom)
C             5.0143261070        5.0000000000        5.0000000000
O             6.1856738930        5.0000000000        5.0000000000



     Writing config-only to output data dir ./CO.save/
     NEW-OLD atomic charge density approx. for the potential

     Check: negative core charge=   -0.000038

     negative rho (up, down):  1.901E-01 1.901E-01
     Generating pointlists ...

     total cpu time spent up to now is       18.2 secs

     Self-consistent Calculation

     iteration #  1     ecut=    29.40 Ry     beta= 0.70
     Davidson diagonalization with overlap
     ethr =  1.00E-06,  avg # of iterations = 10.0

     negative rho (up, down):  1.820E-01 1.820E-01

     total cpu time spent up to now is       19.8 secs

     total energy              =     -59.87935666 Ry
     estimated scf accuracy    <       0.02543367 Ry

     total magnetization       =     0.00 Bohr mag/cell
     absolute magnetization    =     0.00 Bohr mag/cell

     iteration #  2     ecut=    29.40 Ry     beta= 0.70
     Davidson diagonalization with overlap
     ethr =  2.54E-04,  avg # of iterations =  2.0

     negative rho (up, down):  1.810E-01 1.810E-01

     total cpu time spent up to now is       20.8 secs

     total energy              =     -59.88360284 Ry
     estimated scf accuracy    <       0.00865441 Ry

     total magnetization       =    -0.00 Bohr mag/cell
     absolute magnetization    =     0.00 Bohr mag/cell

     iteration #  3     ecut=    29.40 Ry     beta= 0.70
     Davidson diagonalization with overlap
     ethr =  8.65E-05,  avg # of iterations =  2.0

     negative rho (up, down):  1.826E-01 1.826E-01

     total cpu time spent up to now is       21.7 secs

     total energy              =     -59.88582601 Ry
     estimated scf accuracy    <       0.00601743 Ry

     total magnetization       =    -0.00 Bohr mag/cell
     absolute magnetization    =     0.00 Bohr mag/cell

     iteration #  4     ecut=    29.40 Ry     beta= 0.70
     Davidson diagonalization with overlap
     ethr =  6.02E-05,  avg # of iterations =  1.0

     negative rho (up, down):  1.831E-01 1.831E-01

     total cpu time spent up to now is       22.6 secs

     total energy              =     -59.88672583 Ry
     estimated scf accuracy    <       0.00005161 Ry

     total magnetization       =    -0.00 Bohr mag/cell
     absolute magnetization    =     0.00 Bohr mag/cell

     iteration #  5     ecut=    29.40 Ry     beta= 0.70
     Davidson diagonalization with overlap
     ethr =  5.16E-07,  avg # of iterations =  3.0

     negative rho (up, down):  1.831E-01 1.831E-01

     total cpu time spent up to now is       23.7 secs

     total energy              =     -59.88674820 Ry
     estimated scf accuracy    <       0.00001786 Ry

     total magnetization       =     0.00 Bohr mag/cell
     absolute magnetization    =     0.00 Bohr mag/cell

     iteration #  6     ecut=    29.40 Ry     beta= 0.70
     Davidson diagonalization with overlap
     ethr =  1.79E-07,  avg # of iterations =  1.0

     negative rho (up, down):  1.830E-01 1.830E-01

     Magnetic moment per site  (integrated on atomic sphere of radius R)
     atom   1 (R=0.029)  charge=  0.7091  magn=  0.0000
     atom   2 (R=0.029)  charge=  2.3055  magn= -0.0000

     total cpu time spent up to now is       24.6 secs

     End of self-consistent calculation

 ------ SPIN UP ------------


          k = 0.0000 0.0000 0.0000 ( 61445 PWs)   bands (ev):

   -29.1553 -14.2537 -11.4943 -11.4943  -9.1013  -2.3814  -2.3814  -1.4599
    -0.8173

 ------ SPIN DOWN ----------


          k = 0.0000 0.0000 0.0000 ( 61445 PWs)   bands (ev):

   -29.1553 -14.2537 -11.4943 -11.4943  -9.1013  -2.3814  -2.3814  -1.4599
    -0.8183

     the Fermi energy is    -7.6518 ev

!    total energy              =     -59.88675014 Ry
     total all-electron energy =      -226.497739 Ry
     estimated scf accuracy    <       0.00000085 Ry
     smearing contrib. (-TS)   =      -0.00000000 Ry
     internal energy E=F+TS    =     -59.88675014 Ry

     The total energy is F=E-TS. E is the sum of the following terms:
     one-electron contribution =     -91.01988943 Ry
     hartree contribution      =      46.82047820 Ry
     xc contribution           =     -11.60820011 Ry
     ewald contribution        =      11.69712295 Ry
     one-center paw contrib.   =     -15.77626174 Ry

     total magnetization       =    -0.00 Bohr mag/cell
     absolute magnetization    =     0.00 Bohr mag/cell

     convergence has been achieved in   6 iterations

     negative rho (up, down):  1.830E-01 1.830E-01

     Forces acting on atoms (cartesian axes, Ry/au):

     atom    1 type  1   force =     0.03008768    0.00000000    0.00000000
     atom    2 type  2   force =    -0.03008768    0.00000000    0.00000000
     The non-local contrib.  to forces
     atom    1 type  1   force =     1.16666392    0.00000000    0.00000000
     atom    2 type  2   force =    -2.48497469    0.00000000    0.00000000
     The ionic contribution  to forces
     atom    1 type  1   force =    -9.77662372    0.00000000   -0.00000000
     atom    2 type  2   force =     9.77662372   -0.00000000   -0.00000000
     The local contribution  to forces
     atom    1 type  1   force =     8.63125678    0.00000000    0.00000000
     atom    2 type  2   force =    -7.32525983    0.00000000    0.00000000
     The core correction contribution to forces
     atom    1 type  1   force =     0.00853074    0.00000000    0.00000000
     atom    2 type  2   force =     0.00494919    0.00000000    0.00000000
     The Hubbard contrib.    to forces
     atom    1 type  1   force =     0.00000000    0.00000000    0.00000000
     atom    2 type  2   force =     0.00000000    0.00000000    0.00000000
     The SCF correction term to forces
     atom    1 type  1   force =     0.00090393    0.00000000   -0.00000000
     atom    2 type  2   force =    -0.00078210   -0.00000000   -0.00000000

     Total force =     0.042550     Total SCF correction =     0.001195
     Energy error            =      4.6E-03 Ry
     Gradient error          =      3.0E-02 Ry/Bohr

     number of scf cycles    =   3
     number of bfgs steps    =   1

     energy             old  =     -59.8821297187 Ry
     energy             new  =     -59.8867501372 Ry

     CASE: energy            _new < energy            _old

     new trust radius        =       0.0076065964 bohr
     new conv_thr            =       0.0000003009 Ry


ATOMIC_POSITIONS (angstrom)
C             5.0183513445        5.0000000000        5.0000000000
O             6.1816486555        5.0000000000        5.0000000000



     Writing config-only to output data dir ./CO.save/
     NEW-OLD atomic charge density approx. for the potential

     Check: negative core charge=   -0.000038

     negative rho (up, down):  1.828E-01 1.828E-01
     Generating pointlists ...

     total cpu time spent up to now is       25.7 secs

     Self-consistent Calculation

     iteration #  1     ecut=    29.40 Ry     beta= 0.70
     Davidson diagonalization with overlap
     ethr =  1.00E-06,  avg # of iterations =  5.0

     negative rho (up, down):  1.838E-01 1.838E-01

     total cpu time spent up to now is       26.9 secs

     total energy              =     -59.88692311 Ry
     estimated scf accuracy    <       0.00009939 Ry

     total magnetization       =     0.00 Bohr mag/cell
     absolute magnetization    =     0.00 Bohr mag/cell

     iteration #  2     ecut=    29.40 Ry     beta= 0.70
     Davidson diagonalization with overlap
     ethr =  9.94E-07,  avg # of iterations =  2.0

     negative rho (up, down):  1.840E-01 1.840E-01

     total cpu time spent up to now is       27.9 secs

     total energy              =     -59.88694607 Ry
     estimated scf accuracy    <       0.00000789 Ry

     total magnetization       =     0.00 Bohr mag/cell
     absolute magnetization    =     0.00 Bohr mag/cell

     iteration #  3     ecut=    29.40 Ry     beta= 0.70
     Davidson diagonalization with overlap
     ethr =  7.89E-08,  avg # of iterations =  2.0

     negative rho (up, down):  1.840E-01 1.840E-01

     total cpu time spent up to now is       28.8 secs

     total energy              =     -59.88694653 Ry
     estimated scf accuracy    <       0.00000294 Ry

     total magnetization       =    -0.00 Bohr mag/cell
     absolute magnetization    =     0.00 Bohr mag/cell

     iteration #  4     ecut=    29.40 Ry     beta= 0.70
     Davidson diagonalization with overlap
     ethr =  2.94E-08,  avg # of iterations =  1.0

     negative rho (up, down):  1.840E-01 1.840E-01

     total cpu time spent up to now is       29.6 secs

     total energy              =     -59.88694725 Ry
     estimated scf accuracy    <       0.00000040 Ry

     total magnetization       =     0.00 Bohr mag/cell
     absolute magnetization    =     0.00 Bohr mag/cell

     iteration #  5     ecut=    29.40 Ry     beta= 0.70
     Davidson diagonalization with overlap
     ethr =  4.03E-09,  avg # of iterations =  2.0

     negative rho (up, down):  1.841E-01 1.841E-01

     Magnetic moment per site  (integrated on atomic sphere of radius R)
     atom   1 (R=0.029)  charge=  0.7144  magn=  0.0000
     atom   2 (R=0.029)  charge=  2.3066  magn=  0.0000

     total cpu time spent up to now is       30.6 secs

     End of self-consistent calculation

 ------ SPIN UP ------------


          k = 0.0000 0.0000 0.0000 ( 61445 PWs)   bands (ev):

   -29.2770 -14.2497 -11.5676 -11.5676  -9.0852  -2.3154  -2.3154  -1.4588
    -0.8164

 ------ SPIN DOWN ----------


          k = 0.0000 0.0000 0.0000 ( 61445 PWs)   bands (ev):

   -29.2770 -14.2497 -11.5676 -11.5676  -9.0852  -2.3154  -2.3154  -1.4588
    -0.8171

     the Fermi energy is    -7.6816 ev

!    total energy              =     -59.88694720 Ry
     total all-electron energy =      -226.497936 Ry
     estimated scf accuracy    <       0.00000002 Ry
     smearing contrib. (-TS)   =      -0.00000000 Ry
     internal energy E=F+TS    =     -59.88694720 Ry

     The total energy is F=E-TS. E is the sum of the following terms:
     one-electron contribution =     -91.27999297 Ry
     hartree contribution      =      46.94655121 Ry
     xc contribution           =     -11.62389175 Ry
     ewald contribution        =      11.84688907 Ry
     one-center paw contrib.   =     -15.77650277 Ry

     total magnetization       =    -0.00 Bohr mag/cell
     absolute magnetization    =     0.00 Bohr mag/cell

     convergence has been achieved in   5 iterations

     negative rho (up, down):  1.841E-01 1.841E-01

     Forces acting on atoms (cartesian axes, Ry/au):

     atom    1 type  1   force =    -0.00467116    0.00000000    0.00000000
     atom    2 type  2   force =     0.00467116    0.00000000    0.00000000
     The non-local contrib.  to forces
     atom    1 type  1   force =     1.15141130    0.00000000    0.00000000
     atom    2 type  2   force =    -2.48834683    0.00000000    0.00000000
     The ionic contribution  to forces
     atom    1 type  1   force =    -9.91282599    0.00000000   -0.00000000
     atom    2 type  2   force =     9.91282599   -0.00000000   -0.00000000
     The local contribution  to forces
     atom    1 type  1   force =     8.74965138    0.00000000    0.00000000
     atom    2 type  2   force =    -7.42348934    0.00000000    0.00000000
     The core correction contribution to forces
     atom    1 type  1   force =     0.00843794   -0.00000000   -0.00000000
     atom    2 type  2   force =     0.00478359    0.00000000    0.00000000
     The Hubbard contrib.    to forces
     atom    1 type  1   force =     0.00000000    0.00000000    0.00000000
     atom    2 type  2   force =     0.00000000    0.00000000    0.00000000
     The SCF correction term to forces
     atom    1 type  1   force =    -0.00011930   -0.00000000    0.00000000
     atom    2 type  2   force =     0.00012422    0.00000000    0.00000000

     Total force =     0.006606     Total SCF correction =     0.000172
     Energy error            =      2.0E-04 Ry
     Gradient error          =      4.7E-03 Ry/Bohr

     number of scf cycles    =   4
     number of bfgs steps    =   2

     energy             old  =     -59.8867501372 Ry
     energy             new  =     -59.8869472040 Ry

     CASE: energy            _new < energy            _old

     new trust radius        =       0.0010222322 bohr
     new conv_thr            =       0.0000000197 Ry


ATOMIC_POSITIONS (angstrom)
C             5.0178104025        5.0000000000        5.0000000000
O             6.1821895975        5.0000000000        5.0000000000



     Writing config-only to output data dir ./CO.save/
     NEW-OLD atomic charge density approx. for the potential

     Check: negative core charge=   -0.000038

     negative rho (up, down):  1.841E-01 1.841E-01
     Generating pointlists ...

     total cpu time spent up to now is       31.8 secs

     Self-consistent Calculation

     iteration #  1     ecut=    29.40 Ry     beta= 0.70
     Davidson diagonalization with overlap
     ethr =  1.00E-06,  avg # of iterations =  2.0

     Threshold (ethr) on eigenvalues was too large:
     Diagonalizing with lowered threshold

     Davidson diagonalization with overlap
     ethr =  1.46E-08,  avg # of iterations =  4.0

     negative rho (up, down):  1.839E-01 1.839E-01

     total cpu time spent up to now is       33.2 secs

     total energy              =     -59.88695120 Ry
     estimated scf accuracy    <       0.00000175 Ry

     total magnetization       =    -0.00 Bohr mag/cell
     absolute magnetization    =     0.00 Bohr mag/cell

     iteration #  2     ecut=    29.40 Ry     beta= 0.70
     Davidson diagonalization with overlap
     ethr =  1.75E-08,  avg # of iterations =  2.0

     negative rho (up, down):  1.839E-01 1.839E-01

     total cpu time spent up to now is       34.2 secs

     total energy              =     -59.88695176 Ry
     estimated scf accuracy    <       0.00000012 Ry

     total magnetization       =    -0.00 Bohr mag/cell
     absolute magnetization    =     0.00 Bohr mag/cell

     iteration #  3     ecut=    29.40 Ry     beta= 0.70
     Davidson diagonalization with overlap
     ethr =  1.19E-09,  avg # of iterations =  3.0

     negative rho (up, down):  1.839E-01 1.839E-01

     total cpu time spent up to now is       35.1 secs

     total energy              =     -59.88695184 Ry
     estimated scf accuracy    <       0.00000014 Ry

     total magnetization       =     0.00 Bohr mag/cell
     absolute magnetization    =     0.00 Bohr mag/cell

     iteration #  4     ecut=    29.40 Ry     beta= 0.70
     Davidson diagonalization with overlap
     ethr =  1.19E-09,  avg # of iterations =  1.0

     negative rho (up, down):  1.839E-01 1.839E-01

     Magnetic moment per site  (integrated on atomic sphere of radius R)
     atom   1 (R=0.029)  charge=  0.7137  magn=  0.0000
     atom   2 (R=0.029)  charge=  2.3065  magn=  0.0000

     total cpu time spent up to now is       35.8 secs

     End of self-consistent calculation

 ------ SPIN UP ------------


          k = 0.0000 0.0000 0.0000 ( 61445 PWs)   bands (ev):

   -29.2605 -14.2499 -11.5577 -11.5577  -9.0874  -2.3243  -2.3243  -1.4589
    -0.8166

 ------ SPIN DOWN ----------


          k = 0.0000 0.0000 0.0000 ( 61445 PWs)   bands (ev):

   -29.2605 -14.2499 -11.5577 -11.5577  -9.0874  -2.3243  -2.3243  -1.4589
    -0.8173

     the Fermi energy is    -7.6776 ev

!    total energy              =     -59.88695187 Ry
     total all-electron energy =      -226.497940 Ry
     estimated scf accuracy    <          5.0E-09 Ry
     smearing contrib. (-TS)   =      -0.00000000 Ry
     internal energy E=F+TS    =     -59.88695187 Ry

     The total energy is F=E-TS. E is the sum of the following terms:
     one-electron contribution =     -91.24526393 Ry
     hartree contribution      =      46.93000359 Ry
     xc contribution           =     -11.62185897 Ry
     ewald contribution        =      11.82664154 Ry
     one-center paw contrib.   =     -15.77647411 Ry

     total magnetization       =     0.00 Bohr mag/cell
     absolute magnetization    =     0.00 Bohr mag/cell

     convergence has been achieved in   4 iterations

     negative rho (up, down):  1.839E-01 1.839E-01

     Forces acting on atoms (cartesian axes, Ry/au):

     atom    1 type  1   force =     0.00020764    0.00000000    0.00000000
     atom    2 type  2   force =    -0.00020764    0.00000000    0.00000000
     The non-local contrib.  to forces
     atom    1 type  1   force =     1.15357401    0.00000000    0.00000000
     atom    2 type  2   force =    -2.48807160    0.00000000    0.00000000
     The ionic contribution  to forces
     atom    1 type  1   force =    -9.89435781   -0.00000000   -0.00000000
     atom    2 type  2   force =     9.89435781   -0.00000000   -0.00000000
     The local contribution  to forces
     atom    1 type  1   force =     8.73364034    0.00000000    0.00000000
     atom    2 type  2   force =    -7.41024978    0.00000000    0.00000000
     The core correction contribution to forces
     atom    1 type  1   force =     0.00859982    0.00000000   -0.00000000
     atom    2 type  2   force =     0.00484541    0.00000000    0.00000000
     The Hubbard contrib.    to forces
     atom    1 type  1   force =     0.00000000    0.00000000    0.00000000
     atom    2 type  2   force =     0.00000000    0.00000000    0.00000000
     The SCF correction term to forces
     atom    1 type  1   force =     0.00000830   -0.00000000    0.00000000
     atom    2 type  2   force =     0.00016752   -0.00000000   -0.00000000

     Total force =     0.000294     Total SCF correction =     0.000168
     SCF correction compared to forces is large: reduce conv_thr to get better values
     Energy error            =      4.7E-06 Ry
     Gradient error          =      2.1E-04 Ry/Bohr

     bfgs converged in   5 scf cycles and   3 bfgs steps
     (criteria: energy <  1.0E-04 Ry, force <  1.0E-03 Ry/Bohr)

     End of BFGS Geometry Optimization

     Final energy             =     -59.8869518705 Ry

     File ./CO.bfgs deleted, as requested
Begin final coordinates

ATOMIC_POSITIONS (angstrom)
C             5.0178104025        5.0000000000        5.0000000000
O             6.1821895975        5.0000000000        5.0000000000
End final coordinates



     Writing all to output data dir ./CO.save/

     init_run     :      0.63s CPU      0.68s WALL (       1 calls)
     electrons    :     29.85s CPU     30.64s WALL (       5 calls)
     update_pot   :      1.53s CPU      1.59s WALL (       4 calls)
     forces       :      2.53s CPU      2.59s WALL (       5 calls)

     Called by init_run:
     wfcinit      :      0.08s CPU      0.09s WALL (       1 calls)
     potinit      :      0.24s CPU      0.26s WALL (       1 calls)
     hinit0       :      0.10s CPU      0.11s WALL (       1 calls)

     Called by electrons:
     c_bands      :      9.52s CPU      9.80s WALL (      33 calls)
     sum_band     :      8.27s CPU      8.45s WALL (      33 calls)
     v_of_rho     :      6.47s CPU      6.68s WALL (      37 calls)
     newd         :      4.30s CPU      4.38s WALL (      37 calls)
     PAW_pot      :      1.29s CPU      1.35s WALL (      41 calls)
     mix_rho      :      1.44s CPU      1.44s WALL (      33 calls)

     Called by c_bands:
     init_us_2    :      0.26s CPU      0.26s WALL (     152 calls)
     init_us_2:cp :      0.26s CPU      0.26s WALL (     152 calls)
     cegterg      :      9.14s CPU      9.42s WALL (      66 calls)

     Called by *egterg:
     cdiaghg      :      0.04s CPU      0.04s WALL (     278 calls)
     h_psi        :      7.33s CPU      7.59s WALL (     290 calls)
     s_psi        :      0.20s CPU      0.20s WALL (     290 calls)
     g_psi        :      0.04s CPU      0.05s WALL (     222 calls)

     Called by h_psi:
     h_psi:calbec :      0.29s CPU      0.30s WALL (     290 calls)
     vloc_psi     :      6.63s CPU      6.86s WALL (     290 calls)
     add_vuspsi   :      0.31s CPU      0.32s WALL (     290 calls)

     General routines
     calbec       :      0.42s CPU      0.44s WALL (     404 calls)
     fft          :      3.33s CPU      3.51s WALL (     868 calls)
     ffts         :      0.21s CPU      0.24s WALL (      66 calls)
     fftw         :      5.86s CPU      6.05s WALL (    4270 calls)

     Parallel routines

     PWSCF        :     35.42s CPU     36.46s WALL


   This run was terminated on:  20: 6:40   6Jun2023            

=------------------------------------------------------------------------------=
   JOB DONE.
=------------------------------------------------------------------------------=
