   4   4   1   0
  0.1551143E+02  0.3958864E-09  0.3958864E-09  0.3958864E-09  0.5000000E-15
   1.0000000000000000E-004
  CAR 
 Slab                                    
     28.07948972     -0.48093284  301     10.75440444      1.00000000
     -0.481  0.0000E+00  0.0000E+00  0.0000E+00  0.0000E+00
     -0.386  0.0000E+00  0.0000E+00  0.0000E+00  0.0000E+00
     -0.291  0.0000E+00  0.0000E+00  0.0000E+00  0.0000E+00
     -0.195  0.0000E+00  0.0000E+00  0.0000E+00  0.0000E+00
     -0.100  0.0000E+00  0.0000E+00  0.0000E+00  0.0000E+00
     -0.005  0.0000E+00  0.0000E+00  0.0000E+00  0.0000E+00
      0.090  0.0000E+00  0.0000E+00  0.0000E+00  0.0000E+00
      0.185  0.0000E+00  0.0000E+00  0.0000E+00  0.0000E+00
      0.281  0.0000E+00  0.0000E+00  0.0000E+00  0.0000E+00
      0.376 -0.1091E-34 -0.2153E-38 -0.1039E-35 -0.2049E-39
      0.471 -0.9068E-22 -0.1100E-24 -0.8633E-23 -0.1048E-25
      0.566 -0.4751E-12 -0.3606E-14 -0.4523E-13 -0.3433E-15
      0.661 -0.1476E-05 -0.7296E-07 -0.1405E-06 -0.6946E-08
      0.757 -0.1084E-02 -0.5879E-03 -0.1033E-03 -0.5598E-04
      0.852  0.3040E-01  0.2143E-01  0.2791E-02  0.1984E-02
      0.947  0.1262E-02  0.9943E-02  0.2911E-02  0.2930E-02
      1.042  0.8063E-03 -0.6538E-02  0.2987E-02  0.2308E-02
      1.137  0.1888E+00  0.1760E+00  0.2096E-01  0.1907E-01
      1.233 -0.7511E-02  0.1407E-01  0.2025E-01  0.2041E-01
      1.328  0.1102E+00  0.1155E-01  0.3073E-01  0.2151E-01
      1.423  0.2666E+00  0.3689E+00  0.5611E-01  0.5662E-01
      1.518 -0.1601E-01 -0.1646E-01  0.5459E-01  0.5505E-01
      1.613  0.2331E+00  0.1486E+00  0.7679E-01  0.6920E-01
      1.709  0.2052E-01  0.1019E+00  0.7874E-01  0.7890E-01
      1.804 -0.6092E-03 -0.8096E-02  0.7868E-01  0.7812E-01
      1.899  0.1896E+00  0.1727E+00  0.9673E-01  0.9457E-01
      1.994 -0.2064E-01  0.1393E-01  0.9476E-01  0.9589E-01
      2.090  0.5340E+00  0.2251E+00  0.1456E+00  0.1173E+00
      2.185  0.2114E+00  0.5268E+00  0.1657E+00  0.1675E+00
      2.280  0.3786E+00  0.7644E-01  0.2018E+00  0.1748E+00
      2.375  0.3687E+00  0.6685E+00  0.2369E+00  0.2384E+00
      2.470 -0.7672E-02 -0.2359E-01  0.2362E+00  0.2362E+00
      2.566 -0.3852E-05 -0.1211E-04  0.2362E+00  0.2362E+00
      2.661 -0.1055E-01 -0.2784E-02  0.2351E+00  0.2359E+00
      2.756  0.3062E+00  0.1509E+00  0.2643E+00  0.2503E+00
      2.851  0.4593E+00  0.2843E+00  0.3080E+00  0.2773E+00
      2.946  0.4260E+00  0.7020E+00  0.3486E+00  0.3441E+00
      3.042  0.1051E+00  0.1581E+00  0.3586E+00  0.3592E+00
      3.137  0.2010E+00 -0.1896E-01  0.3777E+00  0.3574E+00
      3.232  0.7787E+00  0.9399E+00  0.4519E+00  0.4469E+00
      3.327  0.7149E+00  0.4680E+00  0.5199E+00  0.4914E+00
      3.422  0.2094E-01  0.3260E+00  0.5219E+00  0.5225E+00
      3.518 -0.1180E-02 -0.6279E-02  0.5218E+00  0.5219E+00
      3.613 -0.3179E-01 -0.2742E-01  0.5188E+00  0.5193E+00
      3.708  0.2998E+01  0.1295E+01  0.8042E+00  0.6425E+00
      3.803  0.8979E+00  0.1940E+01  0.8897E+00  0.8272E+00
      3.898  0.8690E+00  0.9583E+00  0.9724E+00  0.9185E+00
      3.994  0.2893E+00  0.6515E+00  0.1000E+01  0.9805E+00
      4.089  0.2924E+00  0.1670E+00  0.1028E+01  0.9964E+00
      4.184  0.3776E+01  0.8517E+00  0.1387E+01  0.1077E+01
      4.279  0.2697E+01  0.3828E+01  0.1644E+01  0.1442E+01
      4.374  0.1286E+01  0.2132E+01  0.1766E+01  0.1645E+01
      4.470  0.2448E+01  0.1434E+01  0.1999E+01  0.1781E+01
      4.565  0.9773E+00  0.2532E+01  0.2092E+01  0.2022E+01
      4.660  0.4216E+01  0.6784E+00  0.2494E+01  0.2087E+01
      4.755  0.4973E+01  0.4682E+01  0.2967E+01  0.2533E+01
      4.850  0.2701E+01  0.4218E+01  0.3224E+01  0.2934E+01
      4.946  0.2191E+01  0.2636E+01  0.3433E+01  0.3185E+01
      5.041  0.8119E+00  0.2464E+01  0.3510E+01  0.3420E+01
      5.136  0.2211E+01  0.8907E+00  0.3721E+01  0.3505E+01
      5.231  0.3987E+01  0.1785E+01  0.4100E+01  0.3675E+01
      5.326  0.3785E+01  0.4262E+01  0.4461E+01  0.4080E+01
      5.422  0.3606E+01  0.2637E+01  0.4804E+01  0.4331E+01
      5.517 -0.1040E+00  0.4916E+01  0.4794E+01  0.4799E+01
      5.612  0.6668E+00 -0.5943E-01  0.4858E+01  0.4794E+01
      5.707  0.2806E+01  0.6018E+00  0.5125E+01  0.4851E+01
      5.802  0.2161E+01  0.2395E+01  0.5330E+01  0.5079E+01
      5.898  0.2728E+01  0.2118E+01  0.5590E+01  0.5281E+01
      5.993  0.2835E+01  0.2965E+01  0.5860E+01  0.5563E+01
      6.088  0.4535E+01  0.1788E+01  0.6292E+01  0.5733E+01
      6.183  0.3217E+01  0.5089E+01  0.6598E+01  0.6218E+01
      6.278  0.1227E+01  0.3865E+01  0.6715E+01  0.6586E+01
      6.374  0.1628E+01  0.4545E+00  0.6870E+01  0.6629E+01
      6.469  0.3081E+01  0.2151E+01  0.7163E+01  0.6834E+01
      6.564  0.3862E+01  0.2461E+01  0.7531E+01  0.7068E+01
      6.659  0.1479E+01  0.3797E+01  0.7672E+01  0.7429E+01
      6.754  0.2906E+01  0.2056E+01  0.7948E+01  0.7625E+01
      6.850  0.6731E+01  0.2583E+01  0.8589E+01  0.7871E+01
      6.945  0.2956E+01  0.6233E+01  0.8870E+01  0.8464E+01
      7.040  0.2184E+01  0.3963E+01  0.9078E+01  0.8842E+01
      7.135  0.4753E+01  0.1168E+01  0.9531E+01  0.8953E+01
      7.230  0.5744E+01  0.4705E+01  0.1008E+02  0.9401E+01
      7.326  0.3149E+01  0.5213E+01  0.1038E+02  0.9897E+01
      7.421  0.3747E+01  0.4475E+01  0.1073E+02  0.1032E+02
      7.516  0.4802E+01  0.1655E+01  0.1119E+02  0.1048E+02
      7.611  0.3689E+01  0.5471E+01  0.1154E+02  0.1100E+02
      7.706  0.2680E+01  0.4495E+01  0.1180E+02  0.1143E+02
      7.802  0.3272E+01  0.2802E+01  0.1211E+02  0.1170E+02
      7.897  0.2632E+01  0.3346E+01  0.1236E+02  0.1201E+02
      7.992  0.2865E+01  0.2417E+01  0.1263E+02  0.1224E+02
      8.087  0.2209E+01  0.2317E+01  0.1284E+02  0.1247E+02
      8.182  0.2882E+01  0.4366E+01  0.1312E+02  0.1288E+02
      8.278  0.3969E+01  0.1044E+01  0.1350E+02  0.1298E+02
      8.373  0.1382E+01  0.4323E+01  0.1363E+02  0.1339E+02
      8.468  0.3641E+01  0.1889E+01  0.1397E+02  0.1357E+02
      8.563  0.3609E+01  0.1944E+01  0.1432E+02  0.1376E+02
      8.658  0.1468E+00  0.4035E+01  0.1433E+02  0.1414E+02
      8.754  0.1523E+01  0.2027E+01  0.1448E+02  0.1433E+02
      8.849  0.4880E+01  0.1903E+00  0.1494E+02  0.1435E+02
      8.944  0.3482E+01  0.2414E+01  0.1527E+02  0.1458E+02
      9.039  0.1819E+01  0.5552E+01  0.1545E+02  0.1511E+02
      9.134  0.3553E+01  0.2339E+01  0.1578E+02  0.1533E+02
      9.230  0.4316E+01  0.2128E+01  0.1619E+02  0.1554E+02
      9.325  0.1898E+01  0.5060E+01  0.1638E+02  0.1602E+02
      9.420  0.2612E+01  0.2361E+01  0.1662E+02  0.1624E+02
      9.515  0.2150E+01  0.3101E+01  0.1683E+02  0.1654E+02
      9.610  0.7153E+00  0.1179E+01  0.1690E+02  0.1665E+02
      9.706  0.1740E+01  0.2324E+01  0.1706E+02  0.1687E+02
      9.801  0.2946E+01  0.5656E+00  0.1734E+02  0.1692E+02
      9.896  0.2036E+01  0.2345E+01  0.1754E+02  0.1715E+02
      9.991  0.4890E+01  0.2730E+01  0.1800E+02  0.1741E+02
     10.086  0.2664E+01  0.2464E+01  0.1826E+02  0.1764E+02
     10.182  0.1469E+01  0.5217E+01  0.1840E+02  0.1814E+02
     10.277  0.3553E+00  0.1825E+01  0.1843E+02  0.1831E+02
     10.372  0.6509E+01  0.9604E+00  0.1905E+02  0.1840E+02
     10.467  0.3156E+01  0.1378E+01  0.1935E+02  0.1854E+02
     10.562  0.2946E+01  0.6282E+01  0.1963E+02  0.1913E+02
     10.658  0.3983E+01  0.2704E+01  0.2001E+02  0.1939E+02
     10.753  0.2473E+01  0.3649E+01  0.2024E+02  0.1974E+02
     10.848  0.5647E+01  0.3212E+01  0.2078E+02  0.2004E+02
     10.943  0.1386E+01  0.3659E+01  0.2091E+02  0.2039E+02
     11.038  0.3405E+00  0.4072E+01  0.2095E+02  0.2078E+02
     11.134  0.6992E+00  0.1784E+01  0.2101E+02  0.2095E+02
     11.229  0.5447E+00 -0.5968E-01  0.2106E+02  0.2094E+02
     11.324  0.2530E+01  0.1132E+01  0.2131E+02  0.2105E+02
     11.419  0.2074E+01  0.7241E+00  0.2150E+02  0.2112E+02
     11.514  0.4207E+00  0.3384E+01  0.2154E+02  0.2144E+02
     11.610 -0.3297E-01  0.9816E+00  0.2154E+02  0.2154E+02
     11.705  0.7535E+00  0.4354E-01  0.2161E+02  0.2154E+02
     11.800  0.2803E+00  0.6014E+00  0.2164E+02  0.2160E+02
     11.895  0.4699E+00  0.3729E+00  0.2168E+02  0.2163E+02
     11.990 -0.1188E-01  0.5289E+00  0.2168E+02  0.2168E+02
     12.086 -0.5486E-02 -0.1503E-01  0.2168E+02  0.2168E+02
     12.181  0.3717E+00 -0.6203E-03  0.2172E+02  0.2168E+02
     12.276  0.1138E+01  0.1126E-01  0.2183E+02  0.2168E+02
     12.371 -0.8792E-01  0.1507E+01  0.2182E+02  0.2183E+02
     12.466  0.1563E+01 -0.5819E-01  0.2197E+02  0.2182E+02
     12.562  0.7554E+00  0.5867E+00  0.2204E+02  0.2188E+02
     12.657  0.2807E+00  0.1651E+01  0.2206E+02  0.2203E+02
     12.752  0.4712E+00  0.7275E-01  0.2211E+02  0.2204E+02
     12.847  0.1019E+01  0.7284E+00  0.2221E+02  0.2211E+02
     12.942  0.1237E+01  0.7073E+00  0.2232E+02  0.2218E+02
     13.038 -0.3558E-01  0.1552E+01  0.2232E+02  0.2233E+02
     13.133 -0.1351E-03 -0.5090E-01  0.2232E+02  0.2232E+02
     13.228 -0.1681E-01 -0.2589E-03  0.2232E+02  0.2232E+02
     13.323  0.7631E+00 -0.1411E-01  0.2239E+02  0.2232E+02
     13.418 -0.3862E-01  0.7635E+00  0.2239E+02  0.2239E+02
     13.514  0.8479E+00 -0.3105E-01  0.2247E+02  0.2239E+02
     13.609  0.1678E+01  0.5801E+00  0.2263E+02  0.2244E+02
     13.704  0.7435E-01  0.1921E+01  0.2264E+02  0.2263E+02
     13.799  0.8345E-01  0.8907E-01  0.2264E+02  0.2264E+02
     13.894  0.6627E+00 -0.8452E-02  0.2271E+02  0.2263E+02
     13.990  0.4400E+00  0.7790E+00  0.2275E+02  0.2271E+02
     14.085  0.1435E+01  0.3525E+00  0.2289E+02  0.2274E+02
     14.180 -0.5682E-02  0.1493E+01  0.2288E+02  0.2288E+02
     14.275  0.1478E+01  0.1002E+00  0.2303E+02  0.2289E+02
     14.370 -0.5919E-01  0.1374E+01  0.2302E+02  0.2303E+02
     14.466  0.3729E+00 -0.5865E-01  0.2306E+02  0.2302E+02
     14.561  0.3778E+00  0.4113E+00  0.2309E+02  0.2306E+02
     14.656 -0.3346E-01  0.3396E+00  0.2309E+02  0.2309E+02
     14.751  0.7026E+00 -0.3270E-01  0.2315E+02  0.2309E+02
     14.846  0.8476E-01  0.7239E+00  0.2316E+02  0.2316E+02
     14.942  0.5466E+00  0.2284E+00  0.2321E+02  0.2318E+02
     15.037  0.2282E+01  0.3784E+00  0.2343E+02  0.2321E+02
     15.132  0.4607E+00  0.2461E+01  0.2348E+02  0.2345E+02
     15.227 -0.8424E-02  0.2816E+00  0.2348E+02  0.2348E+02
     15.323 -0.1705E-06 -0.4637E-02  0.2348E+02  0.2348E+02
     15.418 -0.6358E-12 -0.4752E-07  0.2348E+02  0.2348E+02
     15.513 -0.6123E-05 -0.2570E-11  0.2348E+02  0.2348E+02
     15.608 -0.2130E-01 -0.1470E-04  0.2347E+02  0.2348E+02
     15.703  0.6845E+00 -0.2892E-01  0.2354E+02  0.2347E+02
     15.799  0.4516E+00  0.8852E+00  0.2358E+02  0.2356E+02
     15.894 -0.2508E-01  0.2503E+00  0.2358E+02  0.2358E+02
     15.989  0.3286E+00  0.1609E-01  0.2361E+02  0.2358E+02
     16.084  0.1932E+01  0.3279E+00  0.2379E+02  0.2361E+02
     16.179  0.2841E+00  0.1928E+01  0.2382E+02  0.2380E+02
     16.275  0.1591E+01  0.2612E+00  0.2397E+02  0.2382E+02
     16.370  0.7566E+00  0.1662E+01  0.2404E+02  0.2398E+02
     16.465  0.2174E+01  0.7522E+00  0.2425E+02  0.2405E+02
     16.560 -0.9510E-01  0.1996E+01  0.2424E+02  0.2424E+02
     16.655  0.6723E+00  0.4676E-01  0.2431E+02  0.2425E+02
     16.751  0.8749E-01  0.7477E+00  0.2431E+02  0.2432E+02
     16.846 -0.1171E-02 -0.2465E-01  0.2431E+02  0.2431E+02
     16.941 -0.5938E-05 -0.5915E-04  0.2431E+02  0.2431E+02
     17.036 -0.4377E-01 -0.5531E-04  0.2431E+02  0.2431E+02
     17.131  0.1553E+01 -0.6399E-01  0.2446E+02  0.2431E+02
     17.227  0.1414E+01  0.1889E+01  0.2459E+02  0.2449E+02
     17.322  0.7684E+00  0.1736E+01  0.2467E+02  0.2465E+02
     17.417 -0.3653E-01  0.1152E+00  0.2466E+02  0.2466E+02
     17.512  0.7341E+00 -0.3193E-01  0.2473E+02  0.2466E+02
     17.607  0.1782E+01  0.9215E+00  0.2490E+02  0.2475E+02
     17.703  0.3228E+00  0.1606E+01  0.2493E+02  0.2490E+02
     17.798 -0.2142E-02  0.3273E+00  0.2493E+02  0.2493E+02
     17.893 -0.1477E-01 -0.9758E-02  0.2493E+02  0.2493E+02
     17.988  0.1041E+01  0.1127E+00  0.2503E+02  0.2494E+02
     18.083  0.1091E+01  0.1669E+01  0.2513E+02  0.2510E+02
     18.179  0.2213E+01  0.4959E+00  0.2535E+02  0.2515E+02
     18.274  0.7839E+00  0.2195E+01  0.2542E+02  0.2536E+02
     18.369  0.3172E-01  0.6883E+00  0.2542E+02  0.2542E+02
     18.464 -0.2203E-01 -0.1502E-01  0.2542E+02  0.2542E+02
     18.559  0.7589E+00  0.1681E+00  0.2549E+02  0.2544E+02
     18.655 -0.2620E-02  0.5876E+00  0.2549E+02  0.2549E+02
     18.750  0.3582E-01 -0.1870E-01  0.2550E+02  0.2549E+02
     18.845  0.3443E+00  0.2075E-01  0.2553E+02  0.2549E+02
     18.940 -0.1238E-01  0.3601E+00  0.2553E+02  0.2553E+02
     19.035 -0.1661E-01 -0.1300E-01  0.2553E+02  0.2553E+02
     19.131  0.6045E+00 -0.2699E-01  0.2558E+02  0.2553E+02
     19.226  0.9637E+00  0.8850E+00  0.2568E+02  0.2561E+02
     19.321  0.9702E+00  0.1038E+01  0.2577E+02  0.2571E+02
     19.416  0.1184E+01  0.8827E+00  0.2588E+02  0.2579E+02
     19.511  0.1675E+01  0.2039E+01  0.2604E+02  0.2599E+02
     19.607  0.1370E+01  0.9286E+00  0.2617E+02  0.2607E+02
     19.702  0.2193E+00  0.1006E+01  0.2619E+02  0.2617E+02
     19.797  0.1053E+00  0.3345E+00  0.2620E+02  0.2620E+02
     19.892  0.2819E-01 -0.2019E-01  0.2620E+02  0.2620E+02
     19.987  0.1327E+01  0.3299E+00  0.2633E+02  0.2623E+02
     20.083  0.4334E+00  0.1139E+01  0.2637E+02  0.2634E+02
     20.178  0.3506E+00  0.5417E+00  0.2640E+02  0.2639E+02
     20.273  0.2089E+01  0.3597E+00  0.2660E+02  0.2643E+02
     20.368  0.4691E+00  0.2104E+01  0.2665E+02  0.2663E+02
     20.463  0.4614E+00  0.3993E+00  0.2669E+02  0.2666E+02
     20.559 -0.1457E-01  0.2855E+00  0.2669E+02  0.2669E+02
     20.654 -0.2558E-01 -0.6985E-02  0.2669E+02  0.2669E+02
     20.749  0.7405E+00  0.1450E-01  0.2676E+02  0.2669E+02
     20.844  0.1908E-01  0.7434E+00  0.2676E+02  0.2676E+02
     20.939  0.8882E+00  0.1475E+00  0.2685E+02  0.2678E+02
     21.035  0.3092E+00  0.8274E+00  0.2687E+02  0.2686E+02
     21.130  0.1080E+01  0.2708E+00  0.2698E+02  0.2688E+02
     21.225  0.2758E+01  0.2293E+01  0.2724E+02  0.2710E+02
     21.320  0.1037E+01  0.1813E+01  0.2734E+02  0.2727E+02
     21.415 -0.8147E-02  0.7105E+00  0.2734E+02  0.2734E+02
     21.511 -0.1727E-01 -0.2269E-01  0.2734E+02  0.2734E+02
     21.606  0.5446E+00  0.8682E-01  0.2739E+02  0.2735E+02
     21.701  0.1320E+01  0.9978E+00  0.2751E+02  0.2744E+02
     21.796  0.2450E+00  0.8771E+00  0.2754E+02  0.2752E+02
     21.891  0.1142E+00  0.2526E+00  0.2755E+02  0.2755E+02
     21.987 -0.1284E-01 -0.1359E-01  0.2755E+02  0.2755E+02
     22.082  0.8154E+00  0.9885E-01  0.2762E+02  0.2756E+02
     22.177  0.8167E+00  0.1418E+01  0.2770E+02  0.2769E+02
     22.272  0.8759E+00  0.2295E+00  0.2779E+02  0.2771E+02
     22.367  0.1066E+01  0.1387E+01  0.2789E+02  0.2785E+02
     22.463  0.1458E+01  0.1038E+01  0.2803E+02  0.2794E+02
     22.558  0.1065E+01  0.1228E+01  0.2813E+02  0.2806E+02
     22.653  0.1300E+01  0.1172E+01  0.2825E+02  0.2817E+02
     22.748  0.6873E+00  0.1329E+01  0.2832E+02  0.2830E+02
     22.843  0.1134E+01  0.5918E+00  0.2842E+02  0.2836E+02
     22.939  0.9189E+00  0.1508E+01  0.2851E+02  0.2850E+02
     23.034  0.1782E+01  0.4558E+00  0.2868E+02  0.2854E+02
     23.129  0.1257E+01  0.2416E+01  0.2880E+02  0.2877E+02
     23.224  0.6510E+00  0.6926E+00  0.2886E+02  0.2884E+02
     23.319  0.5949E+00  0.2596E+00  0.2892E+02  0.2886E+02
     23.415  0.5853E+00  0.7263E+00  0.2898E+02  0.2893E+02
     23.510  0.3692E+00  0.7167E+00  0.2901E+02  0.2900E+02
     23.605  0.6599E+00  0.4461E+00  0.2907E+02  0.2904E+02
     23.700  0.4782E+00  0.6273E+00  0.2912E+02  0.2910E+02
     23.795  0.4855E-01  0.1584E+00  0.2912E+02  0.2912E+02
     23.891  0.1829E+01  0.5219E+00  0.2930E+02  0.2917E+02
     23.986  0.2350E+01  0.3029E+01  0.2952E+02  0.2946E+02
     24.081  0.1818E+00  0.9001E+00  0.2954E+02  0.2954E+02
     24.176  0.4080E+00 -0.8318E-01  0.2958E+02  0.2953E+02
     24.271  0.2908E+01  0.1652E+01  0.2985E+02  0.2969E+02
     24.367  0.1061E+01  0.2510E+01  0.2996E+02  0.2993E+02
     24.462  0.4141E+00  0.6818E+00  0.3000E+02  0.3000E+02
     24.557 -0.9999E-02 -0.1130E-01  0.2999E+02  0.2999E+02
     24.652 -0.1823E-01 -0.4105E-03  0.2999E+02  0.2999E+02
     24.747  0.9313E+00 -0.6797E-01  0.3008E+02  0.2999E+02
     24.843  0.1876E+01  0.2306E+01  0.3026E+02  0.3021E+02
     24.938  0.5357E+00  0.7061E+00  0.3031E+02  0.3027E+02
     25.033  0.7821E+00  0.7178E+00  0.3039E+02  0.3034E+02
     25.128  0.1012E+01  0.7036E+00  0.3048E+02  0.3041E+02
     25.223  0.1275E+01  0.1894E+01  0.3060E+02  0.3059E+02
     25.319  0.1453E+01  0.1338E+01  0.3074E+02  0.3072E+02
     25.414  0.5955E+00  0.3627E+00  0.3080E+02  0.3075E+02
     25.509  0.9961E+00  0.8373E+00  0.3089E+02  0.3083E+02
     25.604  0.6485E+00  0.6489E+00  0.3095E+02  0.3089E+02
     25.699  0.1543E+01  0.2164E+01  0.3110E+02  0.3110E+02
     25.795  0.1196E+01  0.2566E+00  0.3122E+02  0.3112E+02
     25.890  0.3074E+01  0.3375E+01  0.3151E+02  0.3145E+02
     25.985  0.1323E+00  0.8231E+00  0.3152E+02  0.3152E+02
     26.080  0.6008E+00  0.1339E+00  0.3158E+02  0.3154E+02
     26.175  0.1272E+00  0.5950E+00  0.3159E+02  0.3159E+02
     26.271  0.7149E+00  0.3227E+00  0.3166E+02  0.3162E+02
     26.366  0.5103E+00  0.7499E+00  0.3171E+02  0.3170E+02
     26.461  0.2087E+01  0.1050E+01  0.3190E+02  0.3180E+02
     26.556  0.7695E+00  0.1958E+01  0.3198E+02  0.3198E+02
     26.651 -0.1587E-01 -0.5059E-01  0.3198E+02  0.3198E+02
     26.747  0.1067E-01  0.1058E-01  0.3198E+02  0.3198E+02
     26.842  0.2432E+00  0.2431E+00  0.3200E+02  0.3200E+02
     26.937 -0.8669E-02 -0.8670E-02  0.3200E+02  0.3200E+02
     27.032 -0.1181E-04 -0.1171E-04  0.3200E+02  0.3200E+02
     27.127 -0.3800E-11 -0.3749E-11  0.3200E+02  0.3200E+02
     27.223  0.0000E+00  0.0000E+00  0.3200E+02  0.3200E+02
     27.318  0.0000E+00  0.0000E+00  0.3200E+02  0.3200E+02
     27.413  0.0000E+00  0.0000E+00  0.3200E+02  0.3200E+02
     27.508  0.0000E+00  0.0000E+00  0.3200E+02  0.3200E+02
     27.603  0.0000E+00  0.0000E+00  0.3200E+02  0.3200E+02
     27.699  0.0000E+00  0.0000E+00  0.3200E+02  0.3200E+02
     27.794  0.0000E+00  0.0000E+00  0.3200E+02  0.3200E+02
     27.889  0.0000E+00  0.0000E+00  0.3200E+02  0.3200E+02
     27.984  0.0000E+00  0.0000E+00  0.3200E+02  0.3200E+02
     28.079  0.0000E+00  0.0000E+00  0.3200E+02  0.3200E+02
     28.07948972     -0.48093284  301     10.75440444      1.00000000
     -0.481  0.0000E+00  0.0000E+00  0.0000E+00  0.0000E+00  0.0000E+00  0.0000E+00
     -0.386  0.0000E+00  0.0000E+00  0.0000E+00  0.0000E+00  0.0000E+00  0.0000E+00
     -0.291  0.0000E+00  0.0000E+00  0.0000E+00  0.0000E+00  0.0000E+00  0.0000E+00
     -0.195  0.0000E+00  0.0000E+00  0.0000E+00  0.0000E+00  0.0000E+00  0.0000E+00
     -0.100  0.0000E+00  0.0000E+00  0.0000E+00  0.0000E+00  0.0000E+00  0.0000E+00
     -0.005  0.0000E+00  0.0000E+00  0.0000E+00  0.0000E+00  0.0000E+00  0.0000E+00
      0.090  0.0000E+00  0.0000E+00  0.0000E+00  0.0000E+00  0.0000E+00  0.0000E+00
      0.185  0.0000E+00  0.0000E+00  0.0000E+00  0.0000E+00  0.0000E+00  0.0000E+00
      0.281  0.0000E+00  0.0000E+00  0.0000E+00  0.0000E+00  0.0000E+00  0.0000E+00
      0.376 -0.1795E-35 -0.3535E-39 -0.3849E-47 -0.4071E-51 -0.4424E-49 -0.6305E-53
      0.471 -0.1492E-22 -0.1807E-25 -0.3198E-34 -0.2081E-37 -0.3676E-36 -0.3223E-39
      0.566 -0.7815E-13 -0.5921E-15 -0.1675E-24 -0.6820E-27 -0.1926E-26 -0.1056E-28
      0.661 -0.2428E-06 -0.1198E-07 -0.5206E-18 -0.1380E-19 -0.5983E-20 -0.2137E-21
      0.757 -0.1783E-03 -0.9655E-04 -0.3821E-15 -0.1112E-15 -0.4392E-17 -0.1722E-17
      0.852  0.5001E-02  0.3519E-02 -0.3485E-12  0.5141E-16 -0.1054E-13 -0.5277E-16
      0.947  0.2078E-03  0.1633E-02 -0.2358E-06 -0.1744E-07 -0.7003E-08 -0.5035E-09
      1.042  0.1300E-03 -0.1053E-02  0.2699E-05 -0.2080E-04  0.8014E-07 -0.6005E-06
      1.137  0.3045E-01  0.2834E-01  0.6145E-03  0.5741E-03  0.1825E-04  0.1658E-04
      1.233 -0.1206E-02  0.2265E-02 -0.2961E-04  0.4518E-04 -0.1675E-05  0.1200E-05
      1.328  0.1740E-01  0.1821E-02  0.6876E-03  0.7289E-04  0.7119E-04  0.7353E-05
      1.423  0.4212E-01  0.5817E-01  0.1664E-02  0.2308E-02  0.1722E-03  0.2313E-03
      1.518 -0.2500E-02 -0.2583E-02 -0.1216E-03 -0.1123E-03 -0.2248E-04 -0.1529E-04
      1.613  0.3601E-01  0.2291E-01  0.2053E-02  0.1313E-02  0.4861E-03  0.2992E-03
      1.709  0.3169E-02  0.1571E-01  0.1805E-03  0.9003E-03  0.4279E-04  0.2051E-03
      1.804 -0.9294E-04 -0.1226E-02 -0.6503E-05 -0.9350E-04 -0.1220E-05 -0.1541E-04
      1.899  0.2861E-01  0.2601E-01  0.2339E-02  0.2136E-02  0.3660E-03  0.3230E-03
      1.994 -0.3063E-02  0.2111E-02 -0.2886E-03  0.1643E-03 -0.6672E-04  0.1995E-04
      2.090  0.7875E-01  0.3314E-01  0.7780E-02  0.3291E-02  0.1975E-02  0.8069E-03
      2.185  0.3121E-01  0.7757E-01  0.3069E-02  0.7699E-02  0.7473E-03  0.1883E-02
      2.280  0.5421E-01  0.1087E-01  0.6003E-02  0.1238E-02  0.3012E-02  0.6431E-03
      2.375  0.5280E-01  0.9562E-01  0.5841E-02  0.1065E-01  0.2919E-02  0.5098E-02
      2.470 -0.1099E-02 -0.3374E-02 -0.1215E-03 -0.3759E-03 -0.6074E-04 -0.1799E-03
      2.566 -0.5284E-06 -0.1732E-05 -0.7801E-07 -0.1934E-06 -0.3915E-07 -0.9258E-07
      2.661 -0.1441E-02 -0.3798E-03 -0.2182E-03 -0.5791E-04 -0.1095E-03 -0.2798E-04
      2.756  0.4188E-01  0.2060E-01  0.6348E-02  0.3141E-02  0.3076E-02  0.1507E-02
      2.851  0.6000E-01  0.3838E-01  0.8829E-02  0.5817E-02  0.9469E-02  0.3541E-02
      2.946  0.5520E-01  0.9108E-01  0.8434E-02  0.1353E-01  0.8936E-02  0.1501E-01
      3.042  0.1358E-01  0.2042E-01  0.2519E-02  0.3884E-02  0.1467E-02  0.2028E-02
      3.137  0.2525E-01 -0.2329E-02  0.4983E-02 -0.4152E-03  0.3697E-02 -0.4939E-03
      3.232  0.9463E-01  0.1159E+00  0.1715E-01  0.2197E-01  0.2196E-01  0.2188E-01
      3.327  0.8646E-01  0.5599E-01  0.1748E-01  0.1094E-01  0.1820E-01  0.1336E-01
      3.422  0.2533E-02  0.3951E-01  0.5104E-03  0.8037E-02  0.5356E-03  0.7981E-02
      3.518 -0.1200E-03 -0.7607E-03 -0.2165E-04 -0.1546E-03 -0.7154E-04 -0.1542E-03
      3.613 -0.3631E-02 -0.2758E-02 -0.8720E-03 -0.5465E-03 -0.9860E-03 -0.1640E-02
      3.708  0.2935E+00  0.1300E+00  0.5641E-01  0.2574E-01  0.1960E+00  0.7784E-01
      3.803  0.6891E-01  0.1939E+00  0.1041E-01  0.3909E-01  0.9353E-01  0.1172E+00
      3.898  0.4640E-01  0.5834E-01  0.2708E-02  0.4386E-02  0.1274E+00  0.1296E+00
      3.994  0.1656E-01  0.3746E-01  0.4448E-02  0.4226E-02  0.3282E-01  0.8794E-01
      4.089  0.5318E-02  0.6390E-02  0.2320E-03  0.1425E-02  0.5378E-01  0.2422E-01
      4.184  0.2206E+00  0.4995E-01  0.4758E-01  0.1246E-01  0.4673E+00  0.9992E-01
      4.279  0.1291E+00  0.2282E+00  0.2947E-01  0.4984E-01  0.3714E+00  0.4651E+00
      4.374  0.2840E-01  0.8451E-01  0.6074E-02  0.1751E-01  0.2260E+00  0.3219E+00
      4.470  0.1436E+00  0.4161E-01  0.4386E-01  0.1085E-01  0.2827E+00  0.2329E+00
      4.565  0.2650E-01  0.1541E+00  0.8940E-02  0.4772E-01  0.1649E+00  0.2810E+00
      4.660  0.1178E+00  0.4621E-02  0.3633E-01  0.2055E-02  0.7169E+00  0.1376E+00
      4.755  0.1482E+00  0.1684E+00  0.5319E-01  0.5517E-01  0.8068E+00  0.7261E+00
      4.850  0.4187E-01  0.9804E-01  0.1699E-01  0.3493E-01  0.5092E+00  0.7312E+00
      4.946  0.4294E-01  0.4475E-01  0.1646E-01  0.1894E-01  0.4021E+00  0.4859E+00
      5.041  0.1292E-01  0.4952E-01  0.1017E-01  0.1888E-01  0.1441E+00  0.4480E+00
      5.136  0.2222E-01  0.1168E-01  0.1804E-01  0.9577E-02  0.4349E+00  0.1640E+00
      5.231  0.9924E-01  0.2033E-01  0.5983E-01  0.1561E-01  0.6615E+00  0.3469E+00
      5.326  0.2615E-01  0.1122E+00  0.3910E-01  0.6559E-01  0.7295E+00  0.6974E+00
      5.422  0.1951E-01  0.1015E-01  0.3354E-01  0.2594E-01  0.7171E+00  0.5177E+00
      5.517 -0.5722E-03  0.2841E-01 -0.1005E-02  0.4864E-01 -0.2069E-01  0.9655E+00
      5.612  0.2258E-02 -0.9102E-03  0.4594E-02 -0.1513E-02  0.1386E+00 -0.9259E-02
      5.707  0.1349E-01  0.1751E-02  0.4713E-01  0.4125E-02  0.5260E+00  0.1254E+00
      5.802  0.8203E-02  0.1453E-01  0.4600E-01  0.4266E-01  0.3945E+00  0.4401E+00
      5.898  0.3824E-02  0.7919E-02  0.4852E-01  0.4261E-01  0.5312E+00  0.3899E+00
      5.993  0.1019E-02  0.5087E-02  0.3284E-01  0.5883E-01  0.5713E+00  0.5633E+00
      6.088  0.2274E-01 -0.2008E-04  0.6778E-01  0.1655E-01  0.8721E+00  0.3716E+00
      6.183  0.1317E-01  0.1876E-01  0.5895E-01  0.7866E-01  0.6087E+00  0.9723E+00
      6.278 -0.3076E-03  0.1587E-01  0.8164E-02  0.6662E-01  0.2567E+00  0.7379E+00
      6.374  0.3888E-02 -0.4629E-03  0.2108E-01  0.3717E-02  0.3221E+00  0.9500E-01
      6.469  0.1283E-01  0.1874E-02  0.3744E-01  0.2229E-01  0.6166E+00  0.4338E+00
      6.564  0.3793E-02  0.1362E-01  0.2792E-01  0.3908E-01  0.8203E+00  0.4738E+00
      6.659  0.8738E-02  0.2268E-02  0.2317E-01  0.2511E-01  0.2871E+00  0.8102E+00
      6.754  0.9475E-02  0.9541E-02  0.2547E-01  0.2696E-01  0.6036E+00  0.4096E+00
      6.850  0.3701E-01  0.7427E-02  0.1221E+00  0.2631E-01  0.1299E+01  0.5295E+00
      6.945  0.1278E-01  0.3449E-01  0.7329E-01  0.1208E+00  0.5449E+00  0.1187E+01
      7.040  0.1738E-01  0.1687E-01  0.2787E-01  0.7950E-01  0.4318E+00  0.7588E+00
      7.135  0.3661E-01  0.9867E-02  0.7636E-01  0.2204E-01  0.9248E+00  0.2177E+00
      7.230  0.2764E-01  0.4149E-01  0.7489E-01  0.7746E-01  0.1163E+01  0.9025E+00
      7.326  0.2337E-01  0.2338E-01  0.7163E-01  0.8097E-01  0.5841E+00  0.1037E+01
      7.421  0.6259E-02  0.2695E-01  0.8065E-02  0.7596E-01  0.8439E+00  0.8731E+00
      7.516  0.1420E-01  0.5770E-04  0.3657E-01 -0.9163E-03  0.1035E+01  0.3852E+00
      7.611  0.1322E-02  0.1850E-01  0.4152E-01  0.4295E-01  0.7917E+00  0.1171E+01
      7.706  0.1055E-02  0.2040E-02  0.3492E-01  0.3516E-01  0.5643E+00  0.9839E+00
      7.802  0.1485E-01  0.1259E-02  0.5072E-01  0.4703E-01  0.6637E+00  0.5749E+00
      7.897  0.2726E-01  0.1344E-01  0.5152E-01  0.4789E-01  0.4957E+00  0.6848E+00
      7.992  0.9142E-02  0.2606E-01  0.1520E-01  0.4849E-01  0.6293E+00  0.4532E+00
      8.087  0.2028E-01  0.9642E-02  0.9066E-01  0.1520E-01  0.3396E+00  0.5004E+00
      8.182  0.9777E-02  0.2755E-01  0.7446E-01  0.1245E+00  0.5401E+00  0.7749E+00
      8.278  0.2229E-01  0.2501E-02  0.7381E-01  0.4615E-01  0.7826E+00  0.1676E+00
      8.373 -0.2184E-03  0.2315E-01  0.1672E-01  0.7808E-01  0.2971E+00  0.8536E+00
      8.468  0.2928E-02 -0.3080E-03  0.1480E-01  0.2063E-01  0.8194E+00  0.4108E+00
      8.563  0.4847E-02  0.1672E-02  0.1816E-01  0.5485E-02  0.8097E+00  0.4408E+00
      8.658  0.1284E-03  0.2914E-02 -0.3609E-03  0.2062E-01  0.3488E-01  0.9032E+00
      8.754  0.1379E-02  0.3557E-02  0.3933E-02  0.8278E-02  0.3481E+00  0.4570E+00
      8.849  0.8683E-02  0.1551E-03  0.2486E-01  0.1166E-04  0.1091E+01  0.4449E-01
      8.944  0.1928E-01  0.2028E-02  0.4372E-01  0.1045E-01  0.7228E+00  0.5448E+00
      9.039  0.8047E-02  0.2173E-01  0.9296E-02  0.5097E-01  0.4028E+00  0.1191E+01
      9.134  0.2948E-02  0.8236E-02  0.1247E-01  0.1534E-01  0.8172E+00  0.5128E+00
      9.230  0.9112E-02  0.5692E-02  0.6440E-01  0.9781E-02  0.9031E+00  0.4793E+00
      9.325  0.1418E-01  0.1155E-01  0.4004E-01  0.7789E-01  0.3705E+00  0.1054E+01
      9.420  0.3235E-02  0.1148E-01  0.2793E-01  0.2382E-01  0.5739E+00  0.5060E+00
      9.515  0.6269E-02  0.7643E-02  0.3172E-01  0.5568E-01  0.4493E+00  0.6385E+00
      9.610  0.2610E-02  0.2695E-02  0.8805E-02  0.1813E-01  0.1518E+00  0.2474E+00
      9.706  0.2285E-02  0.3155E-02  0.6937E-02  0.1236E-01  0.4010E+00  0.5264E+00
      9.801  0.2109E-02  0.1889E-02  0.8563E-02  0.9211E-03  0.6874E+00  0.1304E+00
      9.896  0.1693E-02  0.1903E-02  0.1610E-01  0.1061E-01  0.4599E+00  0.5388E+00
      9.991  0.1237E-01  0.1604E-02  0.3267E-01  0.1248E-01  0.1103E+01  0.6318E+00
     10.086  0.7509E-02  0.5173E-02  0.1690E-01  0.1834E-01  0.6015E+00  0.5527E+00
     10.182  0.5164E-02  0.9827E-02  0.7826E-02  0.3151E-01  0.3337E+00  0.1186E+01
     10.277 -0.1293E-03  0.1093E-01 -0.1165E-03  0.1650E-01  0.8568E-01  0.3967E+00
     10.372  0.1079E-01 -0.4110E-03  0.1782E-01  0.5848E-03  0.1528E+01  0.2305E+00
     10.467  0.6914E-02  0.5543E-03  0.1048E-01  0.1272E-02  0.7374E+00  0.3279E+00
     10.562  0.4564E-02  0.1338E-01  0.5685E-02  0.2080E-01  0.6987E+00  0.1466E+01
     10.658  0.2759E-02  0.5175E-02  0.3821E-02  0.7696E-02  0.9543E+00  0.6343E+00
     10.753  0.6314E-03  0.2385E-02  0.8349E-03  0.5622E-02  0.5992E+00  0.8711E+00
     10.848  0.3967E-03  0.2978E-02  0.6510E-02  0.2431E-02  0.1360E+01  0.7698E+00
     10.943  0.4332E-02  0.5691E-03  0.7033E-02  0.2390E-02  0.3210E+00  0.8847E+00
     11.038  0.2355E-02  0.6955E-04  0.3875E-02  0.4896E-02  0.7360E-01  0.9805E+00
     11.134 -0.4271E-04  0.6250E-02 -0.6933E-04  0.1039E-01  0.1712E+00  0.4097E+00
     11.229 -0.1217E-02 -0.4923E-04 -0.1629E-02 -0.1372E-03  0.1373E+00 -0.1429E-01
     11.324  0.4810E-01  0.1487E-02  0.6419E-01  0.5996E-02  0.4567E+00  0.2655E+00
     11.419  0.3922E-01  0.1054E-01  0.4909E-01  0.2400E-01  0.3794E+00  0.1260E+00
     11.514  0.7919E-02  0.5797E-01  0.4572E-02  0.7015E-01  0.8621E-01  0.6419E+00
     11.610 -0.7887E-03  0.1783E-01 -0.9826E-03  0.1228E-01 -0.5534E-02  0.1992E+00
     11.705  0.2013E-01  0.6523E-03  0.2923E-01 -0.1070E-03  0.1129E+00  0.1007E-01
     11.800  0.5571E-03  0.1525E-01  0.1939E-01  0.2301E-01  0.3550E-01  0.9156E-01
     11.895  0.9839E-03  0.4210E-02  0.3245E-01  0.2016E-01  0.5957E-01  0.5276E-01
     11.990 -0.2504E-04  0.9445E-03 -0.8204E-03  0.3427E-01 -0.1506E-02  0.7094E-01
     12.086 -0.9637E-04 -0.2823E-04 -0.2490E-03 -0.9720E-03 -0.8177E-03 -0.2017E-02
     12.181  0.6530E-02 -0.1026E-04  0.1687E-01 -0.2723E-04  0.5540E-01 -0.9472E-04
     12.276  0.2000E-01  0.1870E-03  0.5166E-01  0.4936E-03  0.1696E+00  0.1721E-02
     12.371 -0.2320E-02  0.2501E-01 -0.2885E-02  0.6602E-01 -0.1403E-01  0.2302E+00
     12.466  0.5048E-01 -0.1103E-02  0.3810E-01 -0.2414E-02  0.2606E+00 -0.8962E-02
     12.562  0.2582E-01  0.1699E-01  0.2017E-01  0.1883E-01  0.1218E+00  0.9312E-01