    4    4    1    2
  0.1551143E+02  0.3958864E-09  0.3958864E-09  0.3958864E-09  0.5000000E-15
   1.0000000000000000E-004
  CAR 
 Slab                                    
     40     20     32

  0.3742002E-15  0.3742002E-15  0.3742002E-15  0.2915452E-02
    1        0.817268      0.840941   1.000000   1.000000
    2        3.898611      4.004793   1.000000   1.000000
    3        3.898611      4.004793   1.000000   1.000000
    4        3.898612      4.004793   1.000000   1.000000
    5        4.358895      4.470772   1.000000   1.000000
    6        4.358895      4.470772   1.000000   1.000000
    7        4.358895      4.470772   1.000000   1.000000
    8        7.059366      7.198913   1.000000   1.000000
    9        7.059366      7.198913   1.000000   1.000000
   10        7.059366      7.198913   1.000000   1.000000
   11        9.065147      9.239366   1.000000   1.000000
   12        9.065147      9.239366   1.000000   1.000000
   13       10.617111     10.804060   1.000360  -0.024398
   14       10.617111     10.804060   1.000360  -0.024398
   15       10.617111     10.804060   1.000360  -0.024398
   16       11.129897     11.301751  -0.000000  -0.000000
   17       11.129897     11.301751  -0.000000  -0.000000
   18       11.129897     11.301751  -0.000000  -0.000000
   19       11.129897     11.301751  -0.000000  -0.000000
   20       11.129897     11.301751  -0.000000  -0.000000
   21       11.129897     11.301751  -0.000000  -0.000000
   22       12.565179     12.569863   0.000000   0.000000
   23       12.565179     12.569863   0.000000   0.000000
   24       12.565179     12.569863   0.000000   0.000000
   25       19.247826     19.362164   0.000000   0.000000
   26       19.247826     19.362164   0.000000   0.000000
   27       19.247828     19.362164   0.000000   0.000000
   28       22.026484     22.048905   0.000000   0.000000
   29       22.026484     22.048905   0.000000   0.000000
   30       22.026484     22.048905   0.000000   0.000000
   31       22.026484     22.048905   0.000000   0.000000
   32       22.026484     22.048905   0.000000   0.000000

  0.1428571E+00  0.3742002E-15  0.3742002E-15  0.1749271E-01
    1        1.083478      1.107125   1.000000   1.000000
    2        3.994531      4.097704   1.000000   1.000000
    3        4.091193      4.198506   1.000000   1.000000
    4        4.091193      4.198506   1.000000   1.000000
    5        4.466998      4.579702   1.000000   1.000000
    6        4.523811      4.635500   1.000000   1.000000
    7        4.523811      4.635500   1.000000   1.000000
    8        6.889222      7.026454   1.000000   1.000000
    9        7.194966      7.334953   1.000000   1.000000
   10        7.194966      7.334953   1.000000   1.000000
   11        8.878172      9.049785   1.000000   1.000000
   12        9.133964      9.308671   1.000000   1.000000
   13        9.873462      9.993985   1.000000   1.000000
   14        9.873462      9.993985   1.000000   1.000000
   15       10.336117     10.517859   1.000000   1.000000
   16       10.336117     10.517859   1.000000   1.000000
   17       10.530620     10.716753   1.000000   0.977036
   18       10.798160     10.964922  -0.006846  -0.000000
   19       10.798160     10.964922  -0.006846  -0.000000
   20       11.130560     11.302428  -0.000000  -0.000000
   21       11.130560     11.302428  -0.000000  -0.000000
   22       11.309204     11.337186  -0.000000  -0.000000
   23       13.968603     14.023517   0.000000   0.000000
   24       13.968603     14.023517   0.000000   0.000000
   25       18.777950     18.877860   0.000000   0.000000
   26       18.777950     18.877860   0.000000   0.000000
   27       20.923080     21.017711   0.000000   0.000000
   28       21.784415     21.810357   0.000000   0.000000
   29       21.784430     21.810358   0.000000   0.000000
   30       22.234283     22.276985   0.000000   0.000000
   31       22.234346     22.277074   0.000000   0.000000
   32       22.646549     22.674097   0.000000   0.000000

  0.2857143E+00  0.3742002E-15  0.3742002E-15  0.1749271E-01
    1        1.846482      1.870605   1.000000   1.000000
    2        4.162026      4.250801   1.000000   1.000000
    3        4.603839      4.714291   1.000000   1.000000
    4        4.603839      4.714291   1.000000   1.000000
    5        4.780263      4.895463   1.000000   1.000000
    6        5.014905      5.126081   1.000000   1.000000
    7        5.014905      5.126081   1.000000   1.000000
    8        6.440295      6.571884   1.000000   1.000000
    9        7.595668      7.737111   1.000000   1.000000
   10        7.595668      7.737111   1.000000   1.000000
   11        8.296453      8.407965   1.000000   1.000000
   12        8.296454      8.407965   1.000000   1.000000
   13        8.395466      8.559306   1.000000   1.000000
   14        9.255252      9.317801   1.000000   1.000000
   15        9.330565      9.506704   1.000000   1.000000
   16        9.604766      9.773583   1.000000   1.000000
   17        9.604766      9.773583   1.000000   1.000000
   18       10.003189     10.160403   1.000000   1.000000
   19       10.003189     10.160403   1.000000   1.000000
   20       10.294758     10.478737   1.000000   1.000000
   21       11.131816     11.303712  -0.000000  -0.000000
   22       11.131816     11.303712  -0.000000  -0.000000
   23       15.961300     16.021783   0.000000   0.000000
   24       15.961300     16.021783   0.000000   0.000000
   25       18.058370     18.149637   0.000000   0.000000
   26       18.058370     18.149637   0.000000   0.000000
   27       21.012738     21.047930   0.000000   0.000000
   28       21.012738     21.047930   0.000000   0.000000
   29       22.441254     22.503786   0.000000   0.000000
   30       22.441255     22.503786   0.000000   0.000000
   31       24.278301     24.315399   0.000000   0.000000
   32       24.282941     24.317248   0.000000   0.000000

  0.4285714E+00  0.3742002E-15  0.3742002E-15  0.1749271E-01
    1        2.953008      2.981956   1.000000   1.000000
    2        3.930245      3.983493   1.000000   1.000000
    3        5.156883      5.270899   1.000000   1.000000
    4        5.156883      5.270899   1.000000   1.000000
    5        5.263769      5.383148   1.000000   1.000000
    6        5.821614      5.932136   1.000000   1.000000
    7        5.821614      5.932136   1.000000   1.000000
    8        5.851784      5.976857   1.000000   1.000000
    9        6.925385      7.035575   1.000000   1.000000
   10        6.925385      7.035575   1.000000   1.000000
   11        7.883326      8.031949   1.000000   1.000000
   12        7.943555      8.055797   1.000000   1.000000
   13        8.240101      8.384446   1.000000   1.000000
   14        8.240101      8.384446   1.000000   1.000000
   15        8.860755      9.017955   1.000000   1.000000
   16        8.860755      9.017955   1.000000   1.000000
   17        9.078310      9.227694   1.000000   1.000000
   18        9.078310      9.227694   1.000000   1.000000
   19        9.625403      9.803788   1.000000   1.000000
   20        9.968829     10.149992   1.000000   1.000000
   21       11.132950     11.304871  -0.000000  -0.000000
   22       11.132950     11.304871  -0.000000  -0.000000
   23       17.659100     17.750732   0.000000   0.000000
   24       17.659100     17.750732   0.000000   0.000000
   25       17.936076     17.991763   0.000000   0.000000
   26       17.936076     17.991763   0.000000   0.000000
   27       19.688509     19.734922   0.000000   0.000000
   28       19.688509     19.734922   0.000000   0.000000
   29       22.496213     22.566264   0.000000   0.000000
   30       22.496213     22.566264   0.000000   0.000000
   31       26.471713     26.516076   0.000000   0.000000
   32       26.472011     26.516241   0.000000   0.000000

  0.1428571E+00  0.1428571E+00  0.3742002E-15  0.3498542E-01
    1        1.340423      1.364198   1.000000   1.000000
    2        4.192233      4.296637   1.000000   1.000000
    3        4.192234      4.296637   1.000000   1.000000
    4        4.228401      4.337453   1.000000   1.000000
    5        4.625776      4.738248   1.000000   1.000000
    6        4.625776      4.738248   1.000000   1.000000
    7        4.719649      4.830224   1.000000   1.000000
    8        6.819010      6.953863   1.000000   1.000000
    9        7.245967      7.386726   1.000000   1.000000
   10        7.291042      7.431339   1.000000   1.000000
   11        8.835269      9.006224   1.000000   1.000000
   12        9.110143      9.283607   1.000000   1.000000
   13        9.322183      9.436168   1.000000   1.000000
   14        9.322183      9.436168   1.000000   1.000000
   15        9.333054      9.446029   1.000000   1.000000
   16       10.110322     10.288841   1.000000   1.000000
   17       10.336435     10.510442   1.000000   1.000000
   18       10.336435     10.510442   1.000000   1.000000
   19       10.796753     10.963562  -0.001108  -0.000000
   20       10.796753     10.963562  -0.001108  -0.000000
   21       10.917036     11.086909  -0.000021  -0.000000
   22       12.823075     12.912465   0.000000   0.000000
   23       12.823075     12.912465   0.000000   0.000000
   24       14.876581     14.940040   0.000000   0.000000
   25       18.122294     18.202851   0.000000   0.000000
   26       20.241466     20.315453   0.000000   0.000000
   27       20.241466     20.315453   0.000000   0.000000
   28       21.286139     21.348946   0.000000   0.000000
   29       22.391786     22.422886   0.000000   0.000000
   30       22.391789     22.422888   0.000000   0.000000
   31       22.983501     23.034053   0.000000   0.000000
   32       22.983556     23.034616   0.000000   0.000000

  0.2857143E+00  0.1428571E+00  0.3742002E-15  0.6997085E-01
    1        2.076904      2.101602   1.000000   1.000000
    2        4.371825      4.461566   1.000000   1.000000
    3        4.637963      4.750382   1.000000   1.000000
    4        4.724087      4.832132   1.000000   1.000000
    5        4.920634      5.035461   1.000000   1.000000
    6        5.097359      5.209175   1.000000   1.000000
    7        5.235719      5.344423   1.000000   1.000000
    8        6.451679      6.581487   1.000000   1.000000
    9        7.527428      7.669659   1.000000   1.000000
   10        7.603128      7.745314   1.000000   1.000000
   11        7.835679      7.944706   1.000000   1.000000
   12        8.128518      8.238247   1.000000   1.000000
   13        8.223425      8.324725   1.000000   1.000000
   14        8.494835      8.658773   1.000000   1.000000
   15        9.355297      9.529048   1.000000   1.000000
   16        9.494253      9.663259   1.000000   1.000000
   17        9.693969      9.860189   1.000000   1.000000
   18        9.967416     10.128623   1.000000   1.000000
   19        9.998764     10.156158   1.000000   1.000000
   20       10.792689     10.959620   0.019260  -0.000000
   21       10.805883     10.974089  -0.027929  -0.000000
   22       11.277796     11.417290  -0.000000  -0.000000
   23       14.465876     14.558111   0.000000   0.000000
   24       16.629163     16.694399   0.000000   0.000000
   25       17.117403     17.189711   0.000000   0.000000
   26       19.418695     19.483832   0.000000   0.000000
   27       20.711985     20.787276   0.000000   0.000000
   28       21.591023     21.631301   0.000000   0.000000
   29       22.661592     22.714058   0.000000   0.000000
   30       23.297780     23.360540   0.000000   0.000000
   31       23.875699     23.918322   0.000000   0.000000
   32       23.975139     24.015873   0.000000   0.000000

  0.4285714E+00  0.1428571E+00  0.3742002E-15  0.6997085E-01
    1        3.151410      3.181198   1.000000   1.000000
    2        4.130792      4.183811   1.000000   1.000000
    3        5.230264      5.346957   1.000000   1.000000
    4        5.314695      5.428549   1.000000   1.000000
    5        5.373175      5.491902   1.000000   1.000000
    6        5.842948      5.947998   1.000000   1.000000
    7        5.866216      5.977085   1.000000   1.000000
    8        5.918055      6.042015   1.000000   1.000000
    9        6.614351      6.720435   1.000000   1.000000
   10        6.900253      7.010179   1.000000   1.000000
   11        7.426526      7.551524   1.000000   1.000000
   12        7.497700      7.643801   1.000000   1.000000
   13        8.237528      8.382442   1.000000   1.000000
   14        8.528752      8.678664   1.000000   1.000000
   15        8.867591      9.027102   1.000000   1.000000
   16        8.973541      9.132233   1.000000   1.000000
   17        9.073167      9.222927   1.000000   1.000000
   18        9.209022      9.357892   1.000000   1.000000
   19        9.790696      9.964745   1.000000   1.000000
   20       10.368552     10.537414   1.000000   1.000000
   21       10.785601     10.953042   0.069532  -0.000000
   22       10.787235     10.954353   0.056199  -0.000000
   23       15.682967     15.771369   0.000000   0.000000
   24       16.399426     16.478582   0.000000   0.000000
   25       18.516498     18.576658   0.000000   0.000000
   26       19.334315     19.402162   0.000000   0.000000
   27       19.966739     20.040814   0.000000   0.000000
   28       20.248302     20.299472   0.000000   0.000000
   29       23.536976     23.599584   0.000000   0.000000
   30       23.823619     23.878893   0.000000   0.000000
   31       24.826102     24.874843   0.000000   0.000000
   32       26.061462     26.098922   0.000000   0.000000

  0.2857143E+00  0.2857143E+00  0.3742002E-15  0.3498542E-01
    1        2.734509      2.761540   1.000000   1.000000
    2        4.852509      4.966670   1.000000   1.000000
    3        4.951045      5.043500   1.000000   1.000000
    4        4.951046      5.043500   1.000000   1.000000
    5        5.332416      5.446127   1.000000   1.000000
    6        5.332416      5.446127   1.000000   1.000000
    7        5.714400      5.819193   1.000000   1.000000
    8        6.362891      6.488158   1.000000   1.000000
    9        7.029267      7.138891   1.000000   1.000000
   10        7.029267      7.138891   1.000000   1.000000
   11        7.449001      7.590531   1.000000   1.000000
   12        7.592085      7.700123   1.000000   1.000000
   13        7.777840      7.922187   1.000000   1.000000
   14        8.384265      8.548994   1.000000   1.000000
   15        9.130791      9.297431   1.000000   1.000000
   16        9.497145      9.656586   1.000000   1.000000
   17        9.497145      9.656586   1.000000   1.000000
   18        9.745444      9.914122   1.000000   1.000000
   19        9.991161     10.149144   1.000000   1.000000
   20        9.991161     10.149144   1.000000   1.000000
   21       10.323810     10.488306   1.000000   1.000000
   22       12.666703     12.793502   0.000000   0.000000
   23       12.666703     12.793502   0.000000   0.000000
   24       15.724436     15.795858   0.000000   0.000000
   25       18.142663     18.210962   0.000000   0.000000
   26       20.353835     20.439009   0.000000   0.000000
   27       21.112724     21.167608   0.000000   0.000000
   28       21.112724     21.167608   0.000000   0.000000
   29       23.068012     23.117374   0.000000   0.000000
   30       23.068012     23.117374   0.000000   0.000000
   31       25.401657     25.454703   0.000000   0.000000
   32       25.405654     25.528562   0.000000   0.000000

  0.4285714E+00  0.2857143E+00  0.3742002E-15  0.6997085E-01
    1        3.698831      3.732429   1.000000   1.000000
    2        4.661447      4.714226   1.000000   1.000000
    3        5.318488      5.432775   1.000000   1.000000
    4        5.680531      5.787804   1.000000   1.000000
    5        5.691809      5.797281   1.000000   1.000000
    6        5.982204      6.094087   1.000000   1.000000
    7        6.047685      6.150721   1.000000   1.000000
    8        6.051330      6.160247   1.000000   1.000000
    9        6.066249      6.186933   1.000000   1.000000
   10        6.761442      6.895217   1.000000   1.000000
   11        6.791958      6.901511   1.000000   1.000000
   12        7.176451      7.318547   1.000000   1.000000
   13        8.292922      8.439844   1.000000   1.000000
   14        8.391681      8.549313   1.000000   1.000000
   15        8.724487      8.886025   1.000000   1.000000
   16        8.904028      9.057773   1.000000   1.000000
   17        8.910779      9.068704   1.000000   1.000000
   18        9.080118      9.231192   1.000000   1.000000
   19       10.000764     10.159939   1.000000   1.000000
   20       10.077534     10.238887   1.000000   1.000000
   21       10.478948     10.643917   1.000000   1.003833
   22       11.401801     11.555738  -0.000000  -0.000000
   23       13.825769     13.938899   0.000000   0.000000
   24       14.721083     14.812116   0.000000   0.000000
   25       19.923594     19.989147   0.000000   0.000000
   26       20.086587     20.163685   0.000000   0.000000
   27       20.237118     20.301013   0.000000   0.000000
   28       21.648647     21.707303   0.000000   0.000000
   29       22.768536     22.822444   0.000000   0.000000
   30       24.260482     24.307727   0.000000   0.000000
   31       24.935804     24.991111   0.000000   0.000000
   32       25.855650     25.902837   0.000000   0.000000

  0.4285714E+00  0.4285714E+00  0.3742002E-15  0.3498542E-01
    1        4.448405      4.492754   1.000000   1.000000
    2        5.208923      5.271908   1.000000   1.000000
    3        5.208923      5.271908   1.000000   1.000000
    4        5.346410      5.441802   1.000000   1.000000
    5        6.112295      6.225904   1.000000   1.000000
    6        6.112295      6.225904   1.000000   1.000000
    7        6.160627      6.277161   1.000000   1.000000
    8        6.369336      6.474090   1.000000   1.000000
    9        6.438886      6.567781   1.000000   1.000000
   10        6.438886      6.567781   1.000000   1.000000
   11        6.528328      6.638898   1.000000   1.000000
   12        6.952788      7.085775   1.000000   1.000000
   13        8.141597      8.302118   1.000000   1.000000
   14        8.380835      8.541540   1.000000   1.000000
   15        8.447667      8.604187   1.000000   1.000000
   16        8.447667      8.604187   1.000000   1.000000
   17        8.569878      8.719957   1.000000   1.000000
   18        9.173247      9.326921   1.000000   1.000000
   19        9.173247      9.326921   1.000000   1.000000
   20        9.479975      9.637240   1.000000   1.000000
   21       11.435462     11.592843  -0.000000  -0.000000
   22       12.490449     12.631645   0.000000   0.000000
   23       12.490449     12.631645   0.000000   0.000000
   24       13.506379     13.624991   0.000000   0.000000
   25       20.402493     20.470690   0.000000   0.000000
   26       21.262500     21.322322   0.000000   0.000000
   27       21.262500     21.322322   0.000000   0.000000
   28       21.662740     21.728866   0.000000   0.000000
   29       22.617882     22.673295   0.000000   0.000000
   30       23.408002     23.470183   0.000000   0.000000
   31       23.408002     23.470183   0.000000   0.000000
   32       25.139304     25.199409   0.000000   0.000000

  0.1428571E+00  0.1428571E+00  0.1428571E+00  0.2332362E-01
    1        1.583813      1.608035   1.000000   1.000000
    2        4.320734      4.427161   1.000000   1.000000
    3        4.320734      4.427161   1.000000   1.000000
    4        4.320734      4.427161   1.000000   1.000000
    5        4.825374      4.936493   1.000000   1.000000
    6        4.825374      4.936493   1.000000   1.000000
    7        4.825374      4.936493   1.000000   1.000000
    8        6.780835      6.912501   1.000000   1.000000
    9        7.314975      7.456429   1.000000   1.000000
   10        7.314975      7.456429   1.000000   1.000000
   11        8.871547      8.976801   1.000000   1.000000
   12        8.871547      8.976801   1.000000   1.000000
   13        8.871547      8.976801   1.000000   1.000000
   14        8.965378      9.136730   1.000000   1.000000
   15        8.965378      9.136730   1.000000   1.000000
   16        9.804381      9.974995   1.000000   1.000000
   17        9.804381      9.974995   1.000000   1.000000
   18        9.804381      9.974995   1.000000   1.000000
   19       10.911539     11.086210  -0.000041  -0.000000
   20       10.911539     11.086210  -0.000041  -0.000000
   21       10.911539     11.086210  -0.000041  -0.000000
   22       13.584540     13.676072   0.000000   0.000000
   23       13.584540     13.676072   0.000000   0.000000
   24       13.584540     13.676072   0.000000   0.000000
   25       19.258593     19.316202   0.000000   0.000000
   26       19.258593     19.316202   0.000000   0.000000
   27       19.258593     19.316202   0.000000   0.000000
   28       22.452572     22.520445   0.000000   0.000000
   29       22.452572     22.520445   0.000000   0.000000
   30       22.452576     22.520452   0.000000   0.000000
   31       23.658982     23.691850   0.000000   0.000000
   32       23.658982     23.691850   0.000000   0.000000

  0.2857143E+00  0.1428571E+00  0.1428571E+00  0.6997085E-01
    1        2.279391      2.305583   1.000000   1.000000
    2        4.473303      4.566334   1.000000   1.000000
    3        4.711089      4.820740   1.000000   1.000000
    4        4.711089      4.820740   1.000000   1.000000
    5        5.131736      5.243735   1.000000   1.000000
    6        5.339418      5.449067   1.000000   1.000000
    7        5.339418      5.449067   1.000000   1.000000
    8        6.503987      6.630085   1.000000   1.000000
    9        7.488789      7.632210   1.000000   1.000000
   10        7.537574      7.681027   1.000000   1.000000
   11        7.756979      7.864333   1.000000   1.000000
   12        7.756979      7.864333   1.000000   1.000000
   13        7.868062      7.969578   1.000000   1.000000
   14        8.698278      8.861470   1.000000   1.000000
   15        9.170763      9.330858   1.000000   1.000000
   16        9.319354      9.492001   1.000000   1.000000
   17        9.334215      9.497526   1.000000   1.000000
   18        9.334215      9.497526   1.000000   1.000000
   19       10.724596     10.902256   0.918291  -0.000119
   20       10.759436     10.929705   0.415310  -0.000004
   21       10.759436     10.929705   0.415309  -0.000004
   22       11.662244     11.780980  -0.000000  -0.000000
   23       14.964947     15.059219   0.000000   0.000000
   24       14.964947     15.059219   0.000000   0.000000
   25       17.991176     18.047407   0.000000   0.000000
   26       17.991176     18.047407   0.000000   0.000000
   27       21.167208     21.220059   0.000000   0.000000
   28       22.281180     22.349200   0.000000   0.000000
   29       22.281180     22.349200   0.000000   0.000000
   30       24.251342     24.294777   0.000000   0.000000
   31       24.251482     24.294884   0.000000   0.000000
   32       25.027380     25.079733   0.000000   0.000000

  0.4285714E+00  0.1428571E+00  0.1428571E+00  0.6997085E-01
    1        3.290281      3.323357   1.000000   1.000000
    2        4.220711      4.278076   1.000000   1.000000
    3        5.317256      5.430253   1.000000   1.000000
    4        5.317256      5.430254   1.000000   1.000000
    5        5.567004      5.680964   1.000000   1.000000
    6        5.787015      5.894967   1.000000   1.000000
    7        5.787015      5.894967   1.000000   1.000000
    8        6.048451      6.168276   1.000000   1.000000
    9        6.824345      6.932207   1.000000   1.000000
   10        6.824345      6.932207   1.000000   1.000000
   11        7.214705      7.342300   1.000000   1.000000
   12        7.371453      7.517491   1.000000   1.000000
   13        7.935470      8.082336   1.000000   1.000000
   14        8.500342      8.652547   1.000000   1.000000
   15        8.820618      8.979208   1.000000   1.000000
   16        8.820618      8.979208   1.000000   1.000000
   17        9.008577      9.155957   1.000000   1.000000
   18        9.808603      9.983338   1.000000   1.000000
   19       10.082291     10.217933   1.000000   1.000000
   20       10.319687     10.496596   1.000000   1.000000
   21       10.632115     10.798441   1.001470  -0.007918
   22       10.632115     10.798441   1.001470  -0.007918
   23       16.067724     16.161401   0.000000   0.000000
   24       16.067724     16.161401   0.000000   0.000000
   25       17.227642     17.291791   0.000000   0.000000
   26       17.227642     17.291791   0.000000   0.000000
   27       22.085381     22.146363   0.000000   0.000000
   28       22.085381     22.146363   0.000000   0.000000
   29       23.159746     23.215067   0.000000   0.000000
   30       24.187550     24.240796   0.000000   0.000000
   31       24.187556     24.240799   0.000000   0.000000
   32       24.758060     24.805647   0.000000   0.000000

  0.2857143E+00  0.2857143E+00  0.1428571E+00  0.6997085E-01
    1        2.849482      2.880989   1.000000   1.000000
    2        4.775288      4.871633   1.000000   1.000000
    3        4.775288      4.871633   1.000000   1.000000
    4        4.838493      4.947490   1.000000   1.000000
    5        5.670861      5.781622   1.000000   1.000000
    6        5.670861      5.781622   1.000000   1.000000
    7        5.798296      5.906867   1.000000   1.000000
    8        6.539981      6.657040   1.000000   1.000000
    9        7.075287      7.183778   1.000000   1.000000
   10        7.075287      7.183778   1.000000   1.000000
   11        7.424841      7.561759   1.000000   1.000000
   12        7.455338      7.567970   1.000000   1.000000
   13        7.539966      7.686695   1.000000   1.000000
   14        8.768376      8.928993   1.000000   1.000000
   15        8.798597      8.960199   1.000000   1.000000
   16        8.805192      8.960199   1.000000   1.000000
   17        8.805192      8.962345   1.000000   1.000000
   18        9.644058      9.812570   1.000000   1.000000
   19       10.561260     10.731828   1.000000   0.842321
   20       10.563993     10.734041   1.000001   0.815007
   21       10.563993     10.734041   1.000001   0.815007
   22       12.862686     12.980808   0.000000   0.000000
   23       12.862686     12.980808   0.000000   0.000000
   24       16.025525     16.124679   0.000000   0.000000
   25       16.263789     16.323644   0.000000   0.000000
   26       19.433864     19.494322   0.000000   0.000000
   27       19.433864     19.494322   0.000000   0.000000
   28       22.554269     22.622229   0.000000   0.000000
   29       24.370740     24.415598   0.000000   0.000000
   30       24.749144     24.799258   0.000000   0.000000
   31       24.749167     24.799275   0.000000   0.000000
   32       25.461615     25.507652   0.000000   0.000000

  0.4285714E+00  0.2857143E+00  0.1428571E+00  0.1399417E+00
    1        3.661409      3.704813   1.000000   1.000000
    2        4.441378      4.508400   1.000000   1.000000
    3        5.130357      5.232394   1.000000   1.000000
    4        5.169394      5.262999   1.000000   1.000000
    5        5.983212      6.106171   1.000000   1.000000
    6        5.990622      6.107174   1.000000   1.000000
    7        6.117943      6.222301   1.000000   1.000000
    8        6.396868      6.505344   1.000000   1.000000
    9        6.785357      6.888807   1.000000   1.000000
   10        6.799978      6.932651   1.000000   1.000000
   11        7.127116      7.232190   1.000000   1.000000
   12        7.168048      7.311481   1.000000   1.000000
   13        7.742470      7.891099   1.000000   1.000000
   14        8.192345      8.342856   1.000000   1.000000
   15        8.407815      8.564856   1.000000   1.000000
   16        8.491143      8.644827   1.000000   1.000000
   17        9.124668      9.280662   1.000000   1.000000
   18        9.951013     10.108811   1.000000   1.000000
   19       10.305007     10.470576   1.000000   1.000000
   20       10.306607     10.473100   1.000000   1.000000
   21       10.363538     10.528986   1.000000   1.000000
   22       11.314811     11.463711  -0.000000  -0.000000
   23       14.017437     14.125686   0.000000   0.000000
   24       15.027117     15.114229   0.000000   0.000000
   25       17.120798     17.208061   0.000000   0.000000
   26       18.143116     18.216726   0.000000   0.000000
   27       21.175518     21.238975   0.000000   0.000000
   28       22.852192     22.909919   0.000000   0.000000
   29       23.023561     23.082906   0.000000   0.000000
   30       23.905052     23.957660   0.000000   0.000000
   31       25.771286     25.814607   0.000000   0.000000
   32       26.451049     26.493133   0.000000   0.000000

  0.4285714E+00  0.4285714E+00  0.1428571E+00  0.6997085E-01
    1        4.158512      4.218324   1.000000   1.000000
    2        4.688465      4.766122   1.000000   1.000000
    3        4.688465      4.766122   1.000000   1.000000
    4        4.903809      4.993531   1.000000   1.000000
    5        6.305011      6.431606   1.000000   1.000000
    6        6.500723      6.635833   1.000000   1.000000
    7        6.500723      6.635833   1.000000   1.000000
    8        6.709592      6.819120   1.000000   1.000000
    9        6.861900      6.956758   1.000000   1.000000
   10        6.861900      6.956758   1.000000   1.000000
   11        7.041810      7.165022   1.000000   1.000000
   12        7.256846      7.352645   1.000000   1.000000
   13        7.658884      7.810977   1.000000   1.000000
   14        7.975363      8.125556   1.000000   1.000000
   15        7.975363      8.125556   1.000000   1.000000
   16        7.995787      8.150813   1.000000   1.000000