       N       E                     dE             d eps       ncg     rms          rms(c)
DAV:   1     0.198862101805E+03    0.19886E+03   -0.16868E+04  2616   0.949E+02
DAV:   2    -0.194613237520E+02   -0.21832E+03   -0.20737E+03  2960   0.247E+02
DAV:   3    -0.243843053669E+02   -0.49230E+01   -0.48685E+01  2944   0.363E+01
DAV:   4    -0.244224145836E+02   -0.38109E-01   -0.38105E-01  2952   0.348E+00
DAV:   5    -0.244229742456E+02   -0.55966E-03   -0.55966E-03  2984   0.445E-01
DAV:   6    -0.244229827383E+02   -0.84927E-05   -0.84915E-05  2088   0.582E-02
   1 F= -.24422983E+02 E0= -.24422455E+02  d E =-.158395E-02  mag=     0.8965
