 vasp.5.4.4.18Apr17-6-g9f103f2a35 (build May  3 2023 23:59:56) complex           
 executed on           IFC91_ompi date 2023.06.11  15:47:58
 running on    8 total cores
 distrk:  each k-point on    8 cores,    1 groups
 distr:  one band on NCORES_PER_BAND=   1 cores,    8 groups


--------------------------------------------------------------------------------------------------------


 INCAR:
 POTCAR:    PAW_PBE Pt 04Feb2005                  

 ----------------------------------------------------------------------------- 
|                                                                             |
|           W    W    AA    RRRRR   N    N  II  N    N   GGGG   !!!           |
|           W    W   A  A   R    R  NN   N  II  NN   N  G    G  !!!           |
|           W    W  A    A  R    R  N N  N  II  N N  N  G       !!!           |
|           W WW W  AAAAAA  RRRRR   N  N N  II  N  N N  G  GGG   !            |
|           WW  WW  A    A  R   R   N   NN  II  N   NN  G    G                |
|           W    W  A    A  R    R  N    N  II  N    N   GGGG   !!!           |
|                                                                             |
|      For optimal performance we recommend to set                            |
|        NCORE= 4 - approx SQRT( number of cores)                             |
|      NCORE specifies how many cores store one orbital (NPAR=cpu/NCORE).     |
|      This setting can  greatly improve the performance of VASP for DFT.     |
|      The default,   NCORE=1            might be grossly inefficient         |
|      on modern multi-core architectures or massively parallel machines.     |
|      Do your own testing !!!!                                               |
|      Unfortunately you need to use the default for GW and RPA calculations. |
|      (for HF NCORE is supported but not extensively tested yet)             |
|                                                                             |
 ----------------------------------------------------------------------------- 

 POTCAR:    PAW_PBE Pt 04Feb2005                  
   SHA256 =  3ed90460adef76debcff1cfb73ee1349b515b1a3db03439735b44de3a8db7dc8 Pt
   COPYR  = (c) Copyright 04Feb2005 Georg Kresse                                
   COPYR  = This file is part of the software VASP. Any use, copying, and all ot
   COPYR  = If you do not have a valid VASP license, you may not use, copy or di
   VRHFIN =Pt: s1d9                                                             
   LEXCH  = PE                                                                  
   EATOM  =   729.1176 eV,   53.5886 Ry                                         
                                                                                
   TITEL  = PAW_PBE Pt 04Feb2005                                                
   LULTRA =        F    use ultrasoft PP ?                                      
   IUNSCR =        1    unscreen: 0-lin 1-nonlin 2-no                           
   RPACOR =    2.330    partial core radius                                     
   POMASS =  195.080; ZVAL   =   10.000    mass and valenz                      
   RCORE  =    2.600    outmost cutoff radius                                   
   RWIGS  =    2.750; RWIGS  =    1.455    wigner-seitz radius (au A)           
   ENMAX  =  230.283; ENMIN  =  172.712 eV                                      
   ICORE  =        3    local potential                                         
   LCOR   =        T    correct aug charges                                     
   LPAW   =        T    paw PP                                                  
   EAUG   =  358.966                                                            
   DEXC   =    0.000                                                            
   RMAX   =    2.658    core radius for proj-oper                               
   RAUG   =    1.300    factor for augmentation sphere                          
   RDEP   =    2.761    radius for radial grids                                 
   RDEPT  =    2.203    core radius for aug-charge                              
                                                                                
   Atomic configuration                                                         
   16 entries                                                                   
     n  l   j            E        occ.                                          
     1  0  0.50    -78401.1885   2.0000                                         
     2  0  0.50    -13770.7750   2.0000                                         
     2  1  1.50    -11931.0468   6.0000                                         
     3  0  0.50     -3234.7234   2.0000                                         
     3  1  1.50     -2699.2216   6.0000                                         
     3  2  2.50     -2119.5714  10.0000                                         
     4  0  0.50      -695.1528   2.0000                                         
     4  1  1.50      -519.6034   6.0000                                         
     4  2  2.50      -306.6786  10.0000                                         
     4  3  3.50       -70.1041  14.0000                                         
     5  0  0.50      -101.7747   2.0000                                         
     5  1  1.50       -55.9873   6.0000                                         
     5  2  2.50        -6.1423   9.0000                                         
     6  0  0.50        -5.6573   1.0000                                         
     6  1  1.50        -6.8029   0.0000                                         
     5  3  2.50        -1.3606   0.0000                                         
   Description                                                                  
     l       E           TYP  RCUT    TYP  RCUT                                 
     2     -6.1423404     23  2.500                                             
     2     -7.5029230     23  2.500                                             
     0     -5.6573207     23  2.500                                             
     0      0.7416693     23  2.500                                             
     1     -2.7211652     23  2.600                                             
     1     20.4087390     23  2.600                                             
     3     -1.3605826     23  2.500                                             
  local pseudopotential read in
  partial core-charges read in
  partial kinetic energy density read in
  atomic valenz-charges read in
  non local Contribution for L=           2  read in
    real space projection operators read in
  non local Contribution for L=           2  read in
    real space projection operators read in
  non local Contribution for L=           0  read in
    real space projection operators read in
  non local Contribution for L=           0  read in
    real space projection operators read in
  non local Contribution for L=           1  read in
    real space projection operators read in
  non local Contribution for L=           1  read in
    real space projection operators read in
    PAW grid and wavefunctions read in

   number of l-projection  operators is LMAX  =           6
   number of lm-projection operators is LMMAX =          18

  PAW_PBE Pt 04Feb2005                  :
 energy of atom  1       EATOM= -729.1176
 kinetic energy error for atom=    0.0056 (will be added to EATOM!!)


 POSCAR: Pt                                      
  positions in direct lattice
  velocities in cartesian coordinates
 exchange correlation table for  LEXCH =        8
   RHO(1)=    0.500       N(1)  =     2000
   RHO(2)=  100.500       N(2)  =     4000

 VTST: version 3.2, (02/03/18)

 CHAIN: initializing optimizer
 
 OPT: Using VASP Dynamics algorithm
 CHAIN: Read ICHAIN            0

 POSCAR: Pt                                      
  positions in direct lattice
  velocities in cartesian coordinates



--------------------------------------------------------------------------------------------------------


 ion  position               nearest neighbor table
   1  0.000  0.000  0.000-   2 2.80   3 2.80   4 2.80   3 2.80   4 2.80   2 2.80   4 2.80   4 2.80
                             2 2.80   3 2.80   3 2.80   2 2.80
   2  0.500  0.500  0.000-   1 2.80   3 2.80   4 2.80   3 2.80   4 2.80   1 2.80   3 2.80   3 2.80
                             1 2.80   4 2.80   4 2.80   1 2.80
   3  0.500  0.000  0.500-   1 2.80   2 2.80   4 2.80   1 2.80   2 2.80   2 2.80   4 2.80   2 2.80
                             1 2.80   4 2.80   1 2.80   4 2.80
   4  0.000  0.500  0.500-   1 2.80   2 2.80   3 2.80   1 2.80   2 2.80   1 2.80   3 2.80   1 2.80
                             2 2.80   3 2.80   2 2.80   3 2.80

  LATTYP: Found a simple cubic cell.
 ALAT       =     3.9588642286
  
  Lattice vectors:
  
 A1 = (   3.9588642286,   0.0000000000,   0.0000000000)
 A2 = (   0.0000000000,   3.9588642286,   0.0000000000)
 A3 = (   0.0000000000,   0.0000000000,   3.9588642286)


Analysis of symmetry for initial positions (statically):
=====================================================================
 Subroutine PRICEL returns following result:
 
  LATTYP: Found a face centered cubic cell.
 ALAT       =     3.9588642286
  
  Lattice vectors:
  
 A1 = (   1.9794321143,   1.9794321143,  -0.0000000000)
 A2 = (   1.9794321143,  -0.0000000000,  -1.9794321143)
 A3 = (   0.0000000000,   1.9794321143,  -1.9794321143)
 
   4 primitive cells build up your supercell.
 

 Routine SETGRP: Setting up the symmetry group for a 
 simple cubic supercell.


 Subroutine GETGRP returns: Found 48 space group operations
 (whereof 48 operations were pure point group operations)
 out of a pool of 48 trial point group operations.


The static configuration has the point symmetry O_h .


Analysis of symmetry for dynamics (positions and initial velocities):
=====================================================================
 Subroutine PRICEL returns following result:
 
  LATTYP: Found a face centered cubic cell.
 ALAT       =     3.9588642286
  
  Lattice vectors:
  
 A1 = (   1.9794321143,   1.9794321143,  -0.0000000000)
 A2 = (   1.9794321143,  -0.0000000000,  -1.9794321143)
 A3 = (   0.0000000000,   1.9794321143,  -1.9794321143)
 
   4 primitive cells build up your supercell.
 

 Routine SETGRP: Setting up the symmetry group for a 
 simple cubic supercell.


 Subroutine GETGRP returns: Found 48 space group operations
 (whereof 48 operations were pure point group operations)
 out of a pool of 48 trial point group operations.


The dynamic configuration has the point symmetry O_h .


Analysis of constrained symmetry for selective dynamics:
=====================================================================
 Subroutine PRICEL returns following result:
 
  LATTYP: Found a face centered cubic cell.
 ALAT       =     3.9588642286
  
  Lattice vectors:
  
 A1 = (   1.9794321143,   1.9794321143,  -0.0000000000)
 A2 = (   1.9794321143,  -0.0000000000,  -1.9794321143)
 A3 = (   0.0000000000,   1.9794321143,  -1.9794321143)
 
   4 primitive cells build up your supercell.
 

 Routine SETGRP: Setting up the symmetry group for a 
 simple cubic supercell.


 Subroutine GETGRP returns: Found 48 space group operations
 (whereof 48 operations were pure point group operations)
 out of a pool of 48 trial point group operations.


The constrained configuration has the point symmetry O_h .


Analysis of structural, dynamic, and magnetic symmetry:
=====================================================================
 Subroutine PRICEL returns following result:
 
  LATTYP: Found a face centered cubic cell.
 ALAT       =     3.9588642286
  
  Lattice vectors:
  
 A1 = (   1.9794321143,   1.9794321143,  -0.0000000000)
 A2 = (   1.9794321143,  -0.0000000000,  -1.9794321143)
 A3 = (   0.0000000000,   1.9794321143,  -1.9794321143)
 
   4 primitive cells build up your supercell.
 

 Routine SETGRP: Setting up the symmetry group for a 
 simple cubic supercell.


 Subroutine GETGRP returns: Found 48 space group operations
 (whereof 48 operations were pure point group operations)
 out of a pool of 48 trial point group operations.


The magnetic configuration has the point symmetry O_h .


 Subroutine INISYM returns: Found 48 space group operations
 (whereof 48 operations are pure point group operations),
 and found     4 'primitive' translations



 KPOINTS: Pt                                      

Automatic generation of k-mesh.
Space group operators:
 irot       det(A)        alpha          n_x          n_y          n_z        tau_x        tau_y        tau_z
    1     1.000000     0.000000     1.000000     0.000000     0.000000     0.000000     0.000000    -0.000000
    2    -1.000000     0.000000     1.000000     0.000000     0.000000     0.000000     0.000000    -0.000000
    3     1.000000   120.000000    -0.577350    -0.577350    -0.577350     0.000000     0.000000    -0.000000
    4    -1.000000   120.000000    -0.577350    -0.577350    -0.577350     0.000000     0.000000    -0.000000
    5     1.000000   120.000000     0.577350     0.577350     0.577350     0.000000     0.000000    -0.000000
    6    -1.000000   120.000000     0.577350     0.577350     0.577350     0.000000     0.000000    -0.000000
    7     1.000000    90.000000     0.000000     0.000000    -1.000000     0.000000     0.000000    -0.000000
    8    -1.000000    90.000000     0.000000     0.000000    -1.000000     0.000000     0.000000    -0.000000
    9     1.000000   180.000000     0.000000     0.707107     0.707107     0.000000     0.000000    -0.000000
   10    -1.000000   180.000000     0.000000     0.707107     0.707107     0.000000     0.000000    -0.000000
   11     1.000000    90.000000     0.000000     1.000000     0.000000     0.000000     0.000000    -0.000000
   12    -1.000000    90.000000     0.000000     1.000000     0.000000     0.000000     0.000000    -0.000000
   13     1.000000   180.000000     0.000000     0.000000     1.000000     0.000000     0.000000    -0.000000
   14    -1.000000   180.000000     0.000000     0.000000     1.000000     0.000000     0.000000    -0.000000
   15     1.000000   120.000000    -0.577350     0.577350     0.577350     0.000000     0.000000    -0.000000
   16    -1.000000   120.000000    -0.577350     0.577350     0.577350     0.000000     0.000000    -0.000000
   17     1.000000   120.000000    -0.577350     0.577350    -0.577350     0.000000     0.000000    -0.000000
   18    -1.000000   120.000000    -0.577350     0.577350    -0.577350     0.000000     0.000000    -0.000000
   19     1.000000    90.000000     0.000000     0.000000     1.000000     0.000000     0.000000    -0.000000
   20    -1.000000    90.000000     0.000000     0.000000     1.000000     0.000000     0.000000    -0.000000
   21     1.000000    90.000000    -1.000000     0.000000     0.000000     0.000000     0.000000    -0.000000
   22    -1.000000    90.000000    -1.000000     0.000000     0.000000     0.000000     0.000000    -0.000000
   23     1.000000   180.000000     0.707107     0.000000     0.707107     0.000000     0.000000    -0.000000
   24    -1.000000   180.000000     0.707107     0.000000     0.707107     0.000000     0.000000    -0.000000
   25     1.000000   120.000000     0.577350    -0.577350     0.577350     0.000000     0.000000    -0.000000
   26    -1.000000   120.000000     0.577350    -0.577350     0.577350     0.000000     0.000000    -0.000000
   27     1.000000   120.000000    -0.577350    -0.577350     0.577350     0.000000     0.000000    -0.000000
   28    -1.000000   120.000000    -0.577350    -0.577350     0.577350     0.000000     0.000000    -0.000000
   29     1.000000   180.000000     1.000000     0.000000     0.000000     0.000000     0.000000    -0.000000
   30    -1.000000   180.000000     1.000000     0.000000     0.000000     0.000000     0.000000    -0.000000
   31     1.000000    90.000000     0.000000    -1.000000     0.000000     0.000000     0.000000    -0.000000
   32    -1.000000    90.000000     0.000000    -1.000000     0.000000     0.000000     0.000000    -0.000000
   33     1.000000   180.000000     0.707107     0.707107     0.000000     0.000000     0.000000    -0.000000
   34    -1.000000   180.000000     0.707107     0.707107     0.000000     0.000000     0.000000    -0.000000
   35     1.000000    90.000000     1.000000     0.000000     0.000000     0.000000     0.000000    -0.000000
   36    -1.000000    90.000000     1.000000     0.000000     0.000000     0.000000     0.000000    -0.000000
   37     1.000000   120.000000     0.577350    -0.577350    -0.577350     0.000000     0.000000    -0.000000
   38    -1.000000   120.000000     0.577350    -0.577350    -0.577350     0.000000     0.000000    -0.000000
   39     1.000000   180.000000     0.000000     1.000000     0.000000     0.000000     0.000000    -0.000000
   40    -1.000000   180.000000     0.000000     1.000000     0.000000     0.000000     0.000000    -0.000000
   41     1.000000   120.000000     0.577350     0.577350    -0.577350     0.000000     0.000000    -0.000000
   42    -1.000000   120.000000     0.577350     0.577350    -0.577350     0.000000     0.000000    -0.000000
   43     1.000000   180.000000     0.000000    -0.707107     0.707107     0.000000     0.000000    -0.000000
   44    -1.000000   180.000000     0.000000    -0.707107     0.707107     0.000000     0.000000    -0.000000
   45     1.000000   180.000000     0.707107    -0.707107     0.000000     0.000000     0.000000    -0.000000
   46    -1.000000   180.000000     0.707107    -0.707107     0.000000     0.000000     0.000000    -0.000000
   47     1.000000   180.000000     0.707107     0.000000    -0.707107     0.000000     0.000000    -0.000000
   48    -1.000000   180.000000     0.707107     0.000000    -0.707107     0.000000     0.000000    -0.000000
 
 Subroutine IBZKPT returns following result:
 ===========================================
 
 Found     20 irreducible k-points:
 
 Following reciprocal coordinates:
            Coordinates               Weight
  0.000000  0.000000  0.000000      1.000000
  0.142857  0.000000  0.000000      6.000000
  0.285714  0.000000  0.000000      6.000000
  0.428571  0.000000  0.000000      6.000000
  0.142857  0.142857  0.000000     12.000000
  0.285714  0.142857  0.000000     24.000000
  0.428571  0.142857  0.000000     24.000000
  0.285714  0.285714  0.000000     12.000000
  0.428571  0.285714  0.000000     24.000000
  0.428571  0.428571  0.000000     12.000000
  0.142857  0.142857  0.142857      8.000000
  0.285714  0.142857  0.142857     24.000000
  0.428571  0.142857  0.142857     24.000000
  0.285714  0.285714  0.142857     24.000000
  0.428571  0.285714  0.142857     48.000000
  0.428571  0.428571  0.142857     24.000000
  0.285714  0.285714  0.285714      8.000000
  0.428571  0.285714  0.285714     24.000000
  0.428571  0.428571  0.285714     24.000000
  0.428571  0.428571  0.428571      8.000000
 
 Following cartesian coordinates:
            Coordinates               Weight
  0.000000  0.000000  0.000000      1.000000
  0.036085  0.000000  0.000000      6.000000
  0.072171  0.000000  0.000000      6.000000
  0.108256  0.000000  0.000000      6.000000
  0.036085  0.036085  0.000000     12.000000
  0.072171  0.036085  0.000000     24.000000
  0.108256  0.036085  0.000000     24.000000
  0.072171  0.072171  0.000000     12.000000
  0.108256  0.072171  0.000000     24.000000
  0.108256  0.108256  0.000000     12.000000
  0.036085  0.036085  0.036085      8.000000
  0.072171  0.036085  0.036085     24.000000
  0.108256  0.036085  0.036085     24.000000
  0.072171  0.072171  0.036085     24.000000
  0.108256  0.072171  0.036085     48.000000
  0.108256  0.108256  0.036085     24.000000
  0.072171  0.072171  0.072171      8.000000
  0.108256  0.072171  0.072171     24.000000
  0.108256  0.108256  0.072171     24.000000
  0.108256  0.108256  0.108256      8.000000
 


--------------------------------------------------------------------------------------------------------




 Dimension of arrays:
   k-points           NKPTS =     20   k-points in BZ     NKDIM =     20   number of bands    NBANDS=     32
   number of dos      NEDOS =    301   number of ions     NIONS =      4
   non local maximal  LDIM  =      6   non local SUM 2l+1 LMDIM =     18
   total plane-waves  NPLWV =  21952
   max r-space proj   IRMAX =      1   max aug-charges    IRDMAX=   4197
   dimension x,y,z NGX =    28 NGY =   28 NGZ =   28
   dimension x,y,z NGXF=    32 NGYF=   32 NGZF=   32
   support grid    NGXF=    32 NGYF=   32 NGZF=   32
   ions per type =               4
   NGX,Y,Z   is equivalent  to a cutoff of  11.76, 11.76, 11.76 a.u.
   NGXF,Y,Z  is equivalent  to a cutoff of  13.44, 13.44, 13.44 a.u.

 SYSTEM =  Slab                                    
 POSCAR =  Pt                                      

 Startparameter for this run:
   NWRITE =      2    write-flag & timer
   PREC   = high      normal or accurate (medium, high low for compatibility)
   ISTART =      0    job   : 0-new  1-cont  2-samecut
   ICHARG =     11    charge: 1-file 2-atom 10-const
   ISPIN  =      2    spin polarized calculation?
   LNONCOLLINEAR =      F non collinear calculations
   LSORBIT =      F    spin-orbit coupling
   INIWAV =      1    electr: 0-lowe 1-rand  2-diag
   LASPH  =      F    aspherical Exc in radial PAW
   METAGGA=      F    non-selfconsistent MetaGGA calc.

 Electronic Relaxation 1
   ENCUT  =  400.0 eV  29.40 Ry    5.42 a.u.   6.46  6.46  6.46*2*pi/ulx,y,z
   ENINI  =  400.0     initial cutoff
   ENAUG  =  359.0 eV  augmentation charge cutoff
   NELM   =    100;   NELMIN=  4; NELMDL= -5     # of ELM steps 
   EDIFF  = 0.1E-03   stopping-criterion for ELM
   LREAL  =      F    real-space projection
   NLSPLINE    = F    spline interpolate recip. space projectors
   LCOMPAT=      F    compatible to vasp.4.4
   GGA_COMPAT  = T    GGA compatible to vasp.4.4-vasp.4.6
   LMAXPAW     = -100 max onsite density
   LMAXMIX     =    2 max onsite mixed and CHGCAR
   VOSKOWN=      0    Vosko Wilk Nusair interpolation
   ROPT   =    0.00000
 Ionic relaxation
   EDIFFG = -.5E-01   stopping-criterion for IOM
   NSW    =      0    number of steps for IOM
   NBLOCK =      1;   KBLOCK =      1    inner block; outer block 
   IBRION =     -1    ionic relax: 0-MD 1-quasi-New 2-CG
   NFREE  =      0    steps in history (QN), initial steepest desc. (CG)
   ISIF   =      2    stress and relaxation
   IWAVPR =     10    prediction:  0-non 1-charg 2-wave 3-comb
   ISYM   =      2    0-nonsym 1-usesym 2-fastsym
   LCORR  =      T    Harris-Foulkes like correction to forces

   POTIM  = 0.5000    time-step for ionic-motion
   TEIN   =    0.0    initial temperature
   TEBEG  =    0.0;   TEEND  =   0.0 temperature during run
   SMASS  =  -3.00    Nose mass-parameter (am)
   estimated Nose-frequenzy (Omega)   =  0.10E-29 period in steps =****** mass=  -0.358E-27a.u.
   SCALEE = 1.0000    scale energy and forces
   NPACO  =    256;   APACO  = 16.0  distance and # of slots for P.C.
   PSTRESS=    0.0 pullay stress

  Mass of Ions in am
   POMASS = 195.08
  Ionic Valenz
   ZVAL   =  10.00
  Atomic Wigner-Seitz radii
   RWIGS  =   1.46
  virtual crystal weights 
   VCA    =   1.00
   NELECT =      40.0000    total number of electrons
   NUPDOWN=      -1.0000    fix difference up-down

 DOS related values:
   EMIN   =  10.00;   EMAX   =-10.00  energy-range for DOS
   EFERMI =   0.00
   ISMEAR =     1;   SIGMA  =   0.05  broadening in eV -4-tet -1-fermi 0-gaus

 Electronic relaxation 2 (details)
   IALGO  =     38    algorithm
   LDIAG  =      T    sub-space diagonalisation (order eigenvalues)
   LSUBROT=      F    optimize rotation matrix (better conditioning)
   TURBO    =      0    0=normal 1=particle mesh
   IRESTART =      0    0=no restart 2=restart with 2 vectors
   NREBOOT  =      0    no. of reboots
   NMIN     =      0    reboot dimension
   EREF     =   0.00    reference energy to select bands
   IMIX   =      4    mixing-type and parameters
     AMIX     =   0.40;   BMIX     =  1.00
     AMIX_MAG =   1.60;   BMIX_MAG =  1.00
     AMIN     =   0.10
     WC   =   100.;   INIMIX=   1;  MIXPRE=   1;  MAXMIX= -45

 Intra band minimization:
   WEIMIN = 0.0000     energy-eigenvalue tresh-hold
   EBREAK =  0.78E-06  absolut break condition
   DEPER  =   0.30     relativ break condition  

   TIME   =   0.40     timestep for ELM

  volume/ion in A,a.u.               =      15.51       104.68
  Fermi-wavevector in a.u.,A,eV,Ry     =   1.414244  2.672533 27.212808  2.000085
  Thomas-Fermi vector in A             =   2.535806

 Write flags
   LWAVE        =      T    write WAVECAR
   LDOWNSAMPLE  =      F    k-point downsampling of WAVECAR
   LCHARG       =      T    write CHGCAR
   LVTOT        =      F    write LOCPOT, total local potential
   LVHAR        =      F    write LOCPOT, Hartree potential only
   LELF         =      F    write electronic localiz. function (ELF)
   LORBIT       =      0    0 simple, 1 ext, 2 COOP (PROOUT), +10 PAW based schemes


 Dipole corrections
   LMONO  =      F    monopole corrections only (constant potential shift)
   LDIPOL =      F    correct potential (dipole corrections)
   IDIPOL =      0    1-x, 2-y, 3-z, 4-all directions 
   EPSILON=  1.0000000 bulk dielectric constant

 Exchange correlation treatment:
   GGA     =    --    GGA type
   LEXCH   =     8    internal setting for exchange type
   VOSKOWN=      0    Vosko Wilk Nusair interpolation
   LHFCALC =     F    Hartree Fock is set to
   LHFONE  =     F    Hartree Fock one center treatment
   AEXX    =    0.0000 exact exchange contribution

 Linear response parameters
   LEPSILON=     F    determine dielectric tensor
   LRPA    =     F    only Hartree local field effects (RPA)
   LNABLA  =     F    use nabla operator in PAW spheres
   LVEL    =     F    velocity operator in full k-point grid
   LINTERFAST=   F  fast interpolation
   KINTER  =     0    interpolate to denser k-point grid
   CSHIFT  =0.1000    complex shift for real part using Kramers Kronig
   OMEGAMAX=  -1.0    maximum frequency
   DEG_THRESHOLD= 0.2000000E-02 threshold for treating states as degnerate
   RTIME   =   -0.100 relaxation time in fs
  (WPLASMAI=    0.000 imaginary part of plasma frequency in eV, 0.658/RTIME)
   DFIELD  = 0.0000000 0.0000000 0.0000000 field for delta impulse in time

 Orbital magnetization related:
   ORBITALMAG=     F  switch on orbital magnetization
   LCHIMAG   =     F  perturbation theory with respect to B field
   DQ        =  0.001000  dq finite difference perturbation B field
   LLRAUG    =     F  two centre corrections for induced B field



--------------------------------------------------------------------------------------------------------


 Static calculation
 charge density and potential remain constant during run
 spin polarized calculation
 Variant of blocked Davidson
 Davidson routine will perform the subspace rotation
 perform sub-space diagonalisation
    after iterative eigenvector-optimisation
 no mixing
 using additional bands           12
 reciprocal scheme for non local part
 use partial core corrections
 calculate Harris-corrections to forces   (improved forces if not selfconsistent)
 use gradient corrections 
 WARNING: stress and forces are not correct
  (second derivative of E(xc) not defined)
 use of overlap-Matrix (Vanderbilt PP)
 Methfessel and Paxton  Order N= 1 SIGMA  =   0.05


--------------------------------------------------------------------------------------------------------


  energy-cutoff  :      400.00
  volume of cell :       62.05
      direct lattice vectors                 reciprocal lattice vectors
     3.958864229  0.000000000  0.000000000     0.252597700  0.000000000  0.000000000
     0.000000000  3.958864229  0.000000000     0.000000000  0.252597700  0.000000000
     0.000000000  0.000000000  3.958864229     0.000000000  0.000000000  0.252597700

  length of vectors
     3.958864229  3.958864229  3.958864229     0.252597700  0.252597700  0.252597700



 k-points in units of 2pi/SCALE and weight: Pt                                      
   0.00000000  0.00000000  0.00000000       0.003
   0.03608539  0.00000000  0.00000000       0.017
   0.07217077  0.00000000  0.00000000       0.017
   0.10825616  0.00000000  0.00000000       0.017
   0.03608539  0.03608539  0.00000000       0.035
   0.07217077  0.03608539  0.00000000       0.070
   0.10825616  0.03608539  0.00000000       0.070
   0.07217077  0.07217077  0.00000000       0.035
   0.10825616  0.07217077  0.00000000       0.070
   0.10825616  0.10825616  0.00000000       0.035
   0.03608539  0.03608539  0.03608539       0.023
   0.07217077  0.03608539  0.03608539       0.070
   0.10825616  0.03608539  0.03608539       0.070
   0.07217077  0.07217077  0.03608539       0.070
   0.10825616  0.07217077  0.03608539       0.140
   0.10825616  0.10825616  0.03608539       0.070
   0.07217077  0.07217077  0.07217077       0.023
   0.10825616  0.07217077  0.07217077       0.070
   0.10825616  0.10825616  0.07217077       0.070
   0.10825616  0.10825616  0.10825616       0.023

 k-points in reciprocal lattice and weights: Pt                                      
   0.00000000  0.00000000  0.00000000       0.003
   0.14285714  0.00000000  0.00000000       0.017
   0.28571429  0.00000000  0.00000000       0.017
   0.42857143  0.00000000  0.00000000       0.017
   0.14285714  0.14285714  0.00000000       0.035
   0.28571429  0.14285714  0.00000000       0.070
   0.42857143  0.14285714  0.00000000       0.070
   0.28571429  0.28571429  0.00000000       0.035
   0.42857143  0.28571429  0.00000000       0.070
   0.42857143  0.42857143  0.00000000       0.035
   0.14285714  0.14285714  0.14285714       0.023
   0.28571429  0.14285714  0.14285714       0.070
   0.42857143  0.14285714  0.14285714       0.070
   0.28571429  0.28571429  0.14285714       0.070
   0.42857143  0.28571429  0.14285714       0.140
   0.42857143  0.42857143  0.14285714       0.070
   0.28571429  0.28571429  0.28571429       0.023
   0.42857143  0.28571429  0.28571429       0.070
   0.42857143  0.42857143  0.28571429       0.070
   0.42857143  0.42857143  0.42857143       0.023

 position of ions in fractional coordinates (direct lattice) 
   0.00000000  0.00000000  0.00000000
   0.50000000  0.50000000  0.00000000
   0.50000000  0.00000000  0.50000000
   0.00000000  0.50000000  0.50000000

 position of ions in cartesian coordinates  (Angst):
   0.00000000  0.00000000  0.00000000
   1.97943211  1.97943211  0.00000000
   1.97943211  0.00000000  1.97943211
   0.00000000  1.97943211  1.97943211



--------------------------------------------------------------------------------------------------------


 k-point  1 :   0.0000 0.0000 0.0000  plane waves:    1141
 k-point  2 :   0.1429 0.0000 0.0000  plane waves:    1129
 k-point  3 :   0.2857 0.0000 0.0000  plane waves:    1145
 k-point  4 :   0.4286 0.0000 0.0000  plane waves:    1133
 k-point  5 :   0.1429 0.1429 0.0000  plane waves:    1125
 k-point  6 :   0.2857 0.1429 0.0000  plane waves:    1136
 k-point  7 :   0.4286 0.1429 0.0000  plane waves:    1131
 k-point  8 :   0.2857 0.2857 0.0000  plane waves:    1123
 k-point  9 :   0.4286 0.2857 0.0000  plane waves:    1123
 k-point 10 :   0.4286 0.4286 0.0000  plane waves:    1127
 k-point 11 :   0.1429 0.1429 0.1429  plane waves:    1123
 k-point 12 :   0.2857 0.1429 0.1429  plane waves:    1130
 k-point 13 :   0.4286 0.1429 0.1429  plane waves:    1144
 k-point 14 :   0.2857 0.2857 0.1429  plane waves:    1126
 k-point 15 :   0.4286 0.2857 0.1429  plane waves:    1127
 k-point 16 :   0.4286 0.4286 0.1429  plane waves:    1128
 k-point 17 :   0.2857 0.2857 0.2857  plane waves:    1136
 k-point 18 :   0.4286 0.2857 0.2857  plane waves:    1120
 k-point 19 :   0.4286 0.4286 0.2857  plane waves:    1111
 k-point 20 :   0.4286 0.4286 0.4286  plane waves:    1100

 maximum and minimum number of plane-waves per node :      1145     1100

 maximum number of plane-waves:      1145
 maximum index in each direction: 
   IXMAX=    6   IYMAX=    6   IZMAX=    6
   IXMIN=   -6   IYMIN=   -6   IZMIN=   -6


 serial   3D FFT for wavefunctions
 parallel 3D FFT for charge:
    minimum data exchange during FFTs selected (reduces bandwidth)


 total amount of memory used by VASP MPI-rank0    39004. kBytes
=======================================================================

   base      :      30000. kBytes
   nonl-proj :       3391. kBytes
   fftplans  :        266. kBytes
   grid      :       2090. kBytes
   one-center:        124. kBytes
   wavefun   :       3133. kBytes

     INWAV:  cpu time    0.0000: real time    0.0000
 initial charge density was supplied:
 number of electron      39.9999439 magnetization       0.8965459
 keeping initial charge density in first step


--------------------------------------------------------------------------------------------------------


 Maximum index for augmentation-charges          487 (set IRDMAX)


--------------------------------------------------------------------------------------------------------


 First call to EWALD:  gamma=   0.448
 Maximum number of real-space cells 3x 3x 3
 Maximum number of reciprocal cells 3x 3x 3

    FEWALD:  cpu time    0.0031: real time    0.0009


--------------------------------------- Iteration      1(   1)  ---------------------------------------


    POTLOK:  cpu time    0.0778: real time    0.0383
    SETDIJ:  cpu time    0.0077: real time    0.0077
     EDDAV:  cpu time  847.4820: real time  371.8410
       DOS:  cpu time    0.0007: real time    0.0007
    --------------------------------------------
      LOOP:  cpu time  847.5682: real time  371.8877

 eigenvalue-minimisations  :  2616
 total energy-change (2. order) : 0.1988621E+03  (-0.1686840E+04)
 number of electron      39.9999439 magnetization       0.8965459
 augmentation part       39.9999439 magnetization       0.8965459

 Free energy of the ion-electron system (eV)
  ---------------------------------------------------
  alpha Z        PSCENC =       245.13089572
  Ewald energy   TEWEN  =     -3335.35251246
  -Hartree energ DENC   =      -255.49601815
  -exchange      EXHF   =         0.00000000
  -V(xc)+E(xc)   XCENC  =        13.30383458
  PAW double counting   =      3639.26013730    -3538.03889906
  entropy T*S    EENTRO =         0.00004353
  eigenvalues    EBANDS =       513.60681311
  atomic energy  EATOM  =      2916.44780723
  Solvation  Ediel_sol  =         0.00000000
  ---------------------------------------------------
  free energy    TOTEN  =       198.86210181 eV

  energy without entropy =      198.86205827  energy(sigma->0) =      198.86208729


--------------------------------------------------------------------------------------------------------




--------------------------------------- Iteration      1(   2)  ---------------------------------------


     EDDAV:  cpu time  938.4256: real time  396.7131
       DOS:  cpu time    0.0015: real time    0.0007
    --------------------------------------------
      LOOP:  cpu time  938.4271: real time  396.7139

 eigenvalue-minimisations  :  2960
 total energy-change (2. order) :-0.2183234E+03  (-0.2073695E+03)
 number of electron      39.9999439 magnetization       0.8965459
 augmentation part       39.9999439 magnetization       0.8965459

 Free energy of the ion-electron system (eV)
  ---------------------------------------------------
  alpha Z        PSCENC =       245.13089572
  Ewald energy   TEWEN  =     -3335.35251246
  -Hartree energ DENC   =      -255.49601815
  -exchange      EXHF   =         0.00000000
  -V(xc)+E(xc)   XCENC  =        13.30383458
  PAW double counting   =      3639.26013730    -3538.03889906
  entropy T*S    EENTRO =         0.00070526
  eigenvalues    EBANDS =       295.28272582
  atomic energy  EATOM  =      2916.44780723
  Solvation  Ediel_sol  =         0.00000000
  ---------------------------------------------------
  free energy    TOTEN  =       -19.46132375 eV

  energy without entropy =      -19.46202901  energy(sigma->0) =      -19.46155884


--------------------------------------------------------------------------------------------------------




--------------------------------------- Iteration      1(   3)  ---------------------------------------


     EDDAV:  cpu time  957.7118: real time  401.7266
       DOS:  cpu time    0.0008: real time    0.0008
    --------------------------------------------
      LOOP:  cpu time  957.7126: real time  401.7274

 eigenvalue-minimisations  :  2944
 total energy-change (2. order) :-0.4922982E+01  (-0.4868537E+01)
 number of electron      39.9999439 magnetization       0.8965459
 augmentation part       39.9999439 magnetization       0.8965459

 Free energy of the ion-electron system (eV)
  ---------------------------------------------------
  alpha Z        PSCENC =       245.13089572
  Ewald energy   TEWEN  =     -3335.35251246
  -Hartree energ DENC   =      -255.49601815
  -exchange      EXHF   =         0.00000000
  -V(xc)+E(xc)   XCENC  =        13.30383458
  PAW double counting   =      3639.26013730    -3538.03889906
  entropy T*S    EENTRO =        -0.00157289
  eigenvalues    EBANDS =       290.36202236
  atomic energy  EATOM  =      2916.44780723
  Solvation  Ediel_sol  =         0.00000000
  ---------------------------------------------------
  free energy    TOTEN  =       -24.38430537 eV

  energy without entropy =      -24.38273248  energy(sigma->0) =      -24.38378107


--------------------------------------------------------------------------------------------------------




--------------------------------------- Iteration      1(   4)  ---------------------------------------


     EDDAV:  cpu time  937.8020: real time  394.5193
       DOS:  cpu time    0.0016: real time    0.0008
    --------------------------------------------
      LOOP:  cpu time  937.8036: real time  394.5201

 eigenvalue-minimisations  :  2952
 total energy-change (2. order) :-0.3810922E-01  (-0.3810478E-01)
 number of electron      39.9999439 magnetization       0.8965459
 augmentation part       39.9999439 magnetization       0.8965459

 Free energy of the ion-electron system (eV)
  ---------------------------------------------------
  alpha Z        PSCENC =       245.13089572
  Ewald energy   TEWEN  =     -3335.35251246
  -Hartree energ DENC   =      -255.49601815
  -exchange      EXHF   =         0.00000000
  -V(xc)+E(xc)   XCENC  =        13.30383458
  PAW double counting   =      3639.26013730    -3538.03889906
  entropy T*S    EENTRO =        -0.00158370
  eigenvalues    EBANDS =       290.32392395
  atomic energy  EATOM  =      2916.44780723
  Solvation  Ediel_sol  =         0.00000000
  ---------------------------------------------------
  free energy    TOTEN  =       -24.42241458 eV

  energy without entropy =      -24.42083089  energy(sigma->0) =      -24.42188668


--------------------------------------------------------------------------------------------------------




--------------------------------------- Iteration      1(   5)  ---------------------------------------


     EDDAV:  cpu time  926.4984: real time  392.5299
       DOS:  cpu time    0.0036: real time    0.0036
    --------------------------------------------
      LOOP:  cpu time  926.5020: real time  392.5335

 eigenvalue-minimisations  :  2984
 total energy-change (2. order) :-0.5596620E-03  (-0.5596566E-03)
 number of electron      39.9999439 magnetization       0.8965459
 augmentation part       39.9999439 magnetization       0.8965459

 Free energy of the ion-electron system (eV)
  ---------------------------------------------------
  alpha Z        PSCENC =       245.13089572
  Ewald energy   TEWEN  =     -3335.35251246
  -Hartree energ DENC   =      -255.49601815
  -exchange      EXHF   =         0.00000000
  -V(xc)+E(xc)   XCENC  =        13.30383458
  PAW double counting   =      3639.26013730    -3538.03889906
  entropy T*S    EENTRO =        -0.00158395
  eigenvalues    EBANDS =       290.32336454
  atomic energy  EATOM  =      2916.44780723
  Solvation  Ediel_sol  =         0.00000000
  ---------------------------------------------------
  free energy    TOTEN  =       -24.42297425 eV

  energy without entropy =      -24.42139030  energy(sigma->0) =      -24.42244626


--------------------------------------------------------------------------------------------------------




--------------------------------------- Iteration      1(   6)  ---------------------------------------


     EDDAV:  cpu time  681.1322: real time  303.9949
       DOS:  cpu time    0.0012: real time    0.0012
    --------------------------------------------
      LOOP:  cpu time  681.1334: real time  303.9960

 eigenvalue-minimisations  :  2088
 total energy-change (2. order) :-0.8492692E-05  (-0.8491532E-05)
 number of electron      39.9999439 magnetization       0.8965459
 augmentation part       39.9999439 magnetization       0.8965459

 Free energy of the ion-electron system (eV)
  ---------------------------------------------------
  alpha Z        PSCENC =       245.13089572
  Ewald energy   TEWEN  =     -3335.35251246
  -Hartree energ DENC   =      -255.49601815
  -exchange      EXHF   =         0.00000000
  -V(xc)+E(xc)   XCENC  =        13.30383458
  PAW double counting   =      3639.26013730    -3538.03889906
  entropy T*S    EENTRO =        -0.00158395
  eigenvalues    EBANDS =       290.32335605
  atomic energy  EATOM  =      2916.44780723
  Solvation  Ediel_sol  =         0.00000000
  ---------------------------------------------------
  free energy    TOTEN  =       -24.42298274 eV

  energy without entropy =      -24.42139878  energy(sigma->0) =      -24.42245475


--------------------------------------------------------------------------------------------------------




 average (electrostatic) potential at core
  the test charge radii are     1.2059
  (the norm of the test charge is              1.0000)
       1 -63.3299       2 -63.3299       3 -63.3299       4 -63.3299



 E-fermi :  10.7544     XC(G=0): -13.3194     alpha+bet :-16.1531


 spin component 1

 k-point     1 :       0.0000    0.0000    0.0000
  band No.  band energies     occupation 
      1       0.8173      1.00000
      2       3.8986      1.00000
      3       3.8986      1.00000
      4       3.8986      1.00000
      5       4.3589      1.00000
      6       4.3589      1.00000
      7       4.3589      1.00000
      8       7.0594      1.00000
      9       7.0594      1.00000
     10       7.0594      1.00000
     11       9.0651      1.00000
     12       9.0651      1.00000
     13      10.6171      1.00036
     14      10.6171      1.00036
     15      10.6171      1.00036
     16      11.1299     -0.00000
     17      11.1299     -0.00000
     18      11.1299     -0.00000
     19      11.1299     -0.00000
     20      11.1299     -0.00000
     21      11.1299     -0.00000
     22      12.5652      0.00000
     23      12.5652      0.00000
     24      12.5652      0.00000
     25      19.2478      0.00000
     26      19.2478      0.00000
     27      19.2478      0.00000
     28      22.0265      0.00000
     29      22.0265      0.00000
     30      22.0265      0.00000
     31      22.0265      0.00000
     32      22.0265      0.00000

 k-point     2 :       0.1429    0.0000    0.0000
  band No.  band energies     occupation 
      1       1.0835      1.00000
      2       3.9945      1.00000
      3       4.0912      1.00000
      4       4.0912      1.00000
      5       4.4670      1.00000
      6       4.5238      1.00000
      7       4.5238      1.00000
      8       6.8892      1.00000
      9       7.1950      1.00000
     10       7.1950      1.00000
     11       8.8782      1.00000
     12       9.1340      1.00000
     13       9.8735      1.00000
     14       9.8735      1.00000
     15      10.3361      1.00000
     16      10.3361      1.00000
     17      10.5306      1.00000
     18      10.7982     -0.00685
     19      10.7982     -0.00685
     20      11.1306     -0.00000
     21      11.1306     -0.00000
     22      11.3092     -0.00000
     23      13.9686      0.00000
     24      13.9686      0.00000
     25      18.7780      0.00000
     26      18.7780      0.00000
     27      20.9231      0.00000
     28      21.7844      0.00000
     29      21.7844      0.00000
     30      22.2343      0.00000
     31      22.2343      0.00000
     32      22.6465      0.00000

 k-point     3 :       0.2857    0.0000    0.0000
  band No.  band energies     occupation 
      1       1.8465      1.00000
      2       4.1620      1.00000
      3       4.6038      1.00000
      4       4.6038      1.00000
      5       4.7803      1.00000
      6       5.0149      1.00000
      7       5.0149      1.00000
      8       6.4403      1.00000
      9       7.5957      1.00000
     10       7.5957      1.00000
     11       8.2965      1.00000
     12       8.2965      1.00000
     13       8.3955      1.00000
     14       9.2553      1.00000
     15       9.3306      1.00000
     16       9.6048      1.00000
     17       9.6048      1.00000
     18      10.0032      1.00000
     19      10.0032      1.00000
     20      10.2948      1.00000
     21      11.1318     -0.00000
     22      11.1318     -0.00000
     23      15.9613      0.00000
     24      15.9613      0.00000
     25      18.0584      0.00000
     26      18.0584      0.00000
     27      21.0127      0.00000
     28      21.0127      0.00000
     29      22.4413      0.00000
     30      22.4413      0.00000
     31      24.2783      0.00000
     32      24.2829      0.00000

 k-point     4 :       0.4286    0.0000    0.0000
  band No.  band energies     occupation 
      1       2.9530      1.00000
      2       3.9302      1.00000
      3       5.1569      1.00000
      4       5.1569      1.00000
      5       5.2638      1.00000
      6       5.8216      1.00000
      7       5.8216      1.00000
      8       5.8518      1.00000
      9       6.9254      1.00000
     10       6.9254      1.00000
     11       7.8833      1.00000
     12       7.9436      1.00000
     13       8.2401      1.00000
     14       8.2401      1.00000
     15       8.8608      1.00000
     16       8.8608      1.00000
     17       9.0783      1.00000
     18       9.0783      1.00000
     19       9.6254      1.00000
     20       9.9688      1.00000
     21      11.1330     -0.00000
     22      11.1330     -0.00000
     23      17.6591      0.00000
     24      17.6591      0.00000
     25      17.9361      0.00000
     26      17.9361      0.00000
     27      19.6885      0.00000
     28      19.6885      0.00000
     29      22.4962      0.00000
     30      22.4962      0.00000
     31      26.4717      0.00000
     32      26.4720      0.00000

 k-point     5 :       0.1429    0.1429    0.0000
  band No.  band energies     occupation 
      1       1.3404      1.00000
      2       4.1922      1.00000
      3       4.1922      1.00000
      4       4.2284      1.00000
      5       4.6258      1.00000
      6       4.6258      1.00000
      7       4.7196      1.00000
      8       6.8190      1.00000
      9       7.2460      1.00000
     10       7.2910      1.00000
     11       8.8353      1.00000
     12       9.1101      1.00000
     13       9.3222      1.00000
     14       9.3222      1.00000
     15       9.3331      1.00000
     16      10.1103      1.00000
     17      10.3364      1.00000
     18      10.3364      1.00000
     19      10.7968     -0.00111
     20      10.7968     -0.00111
     21      10.9170     -0.00002
     22      12.8231      0.00000
     23      12.8231      0.00000
     24      14.8766      0.00000
     25      18.1223      0.00000
     26      20.2415      0.00000
     27      20.2415      0.00000
     28      21.2861      0.00000
     29      22.3918      0.00000
     30      22.3918      0.00000
     31      22.9835      0.00000
     32      22.9836      0.00000

 k-point     6 :       0.2857    0.1429    0.0000
  band No.  band energies     occupation 
      1       2.0769      1.00000
      2       4.3718      1.00000
      3       4.6380      1.00000
      4       4.7241      1.00000
      5       4.9206      1.00000
      6       5.0974      1.00000
      7       5.2357      1.00000
      8       6.4517      1.00000
      9       7.5274      1.00000
     10       7.6031      1.00000
     11       7.8357      1.00000
     12       8.1285      1.00000
     13       8.2234      1.00000
     14       8.4948      1.00000
     15       9.3553      1.00000
     16       9.4943      1.00000
     17       9.6940      1.00000
     18       9.9674      1.00000
     19       9.9988      1.00000
     20      10.7927      0.01926
     21      10.8059     -0.02793
     22      11.2778     -0.00000
     23      14.4659      0.00000
     24      16.6292      0.00000
     25      17.1174      0.00000
     26      19.4187      0.00000
     27      20.7120      0.00000
     28      21.5910      0.00000
     29      22.6616      0.00000
     30      23.2978      0.00000
     31      23.8757      0.00000
     32      23.9751      0.00000

 k-point     7 :       0.4286    0.1429    0.0000
  band No.  band energies     occupation 
      1       3.1514      1.00000
      2       4.1308      1.00000
      3       5.2303      1.00000
      4       5.3147      1.00000
      5       5.3732      1.00000
      6       5.8429      1.00000
      7       5.8662      1.00000
      8       5.9181      1.00000
      9       6.6144      1.00000
     10       6.9003      1.00000
     11       7.4265      1.00000
     12       7.4977      1.00000
     13       8.2375      1.00000
     14       8.5288      1.00000
     15       8.8676      1.00000
     16       8.9735      1.00000
     17       9.0732      1.00000
     18       9.2090      1.00000
     19       9.7907      1.00000
     20      10.3686      1.00000
     21      10.7856      0.06953
     22      10.7872      0.05620
     23      15.6830      0.00000
     24      16.3994      0.00000
     25      18.5165      0.00000
     26      19.3343      0.00000
     27      19.9667      0.00000
     28      20.2483      0.00000
     29      23.5370      0.00000
     30      23.8236      0.00000
     31      24.8261      0.00000
     32      26.0615      0.00000

 k-point     8 :       0.2857    0.2857    0.0000
  band No.  band energies     occupation 
      1       2.7345      1.00000
      2       4.8525      1.00000
      3       4.9510      1.00000
      4       4.9510      1.00000
      5       5.3324      1.00000
      6       5.3324      1.00000
      7       5.7144      1.00000
      8       6.3629      1.00000
      9       7.0293      1.00000
     10       7.0293      1.00000
     11       7.4490      1.00000
     12       7.5921      1.00000
     13       7.7778      1.00000
     14       8.3843      1.00000
     15       9.1308      1.00000
     16       9.4971      1.00000
     17       9.4971      1.00000
     18       9.7454      1.00000
     19       9.9912      1.00000
     20       9.9912      1.00000
     21      10.3238      1.00000
     22      12.6667      0.00000
     23      12.6667      0.00000
     24      15.7244      0.00000
     25      18.1427      0.00000
     26      20.3538      0.00000
     27      21.1127      0.00000
     28      21.1127      0.00000
     29      23.0680      0.00000
     30      23.0680      0.00000
     31      25.4017      0.00000
     32      25.4057      0.00000

 k-point     9 :       0.4286    0.2857    0.0000
  band No.  band energies     occupation 
      1       3.6988      1.00000
      2       4.6614      1.00000
      3       5.3185      1.00000
      4       5.6805      1.00000
      5       5.6918      1.00000
      6       5.9822      1.00000
      7       6.0477      1.00000
      8       6.0513      1.00000
      9       6.0662      1.00000
     10       6.7614      1.00000
     11       6.7920      1.00000
     12       7.1765      1.00000
     13       8.2929      1.00000
     14       8.3917      1.00000
     15       8.7245      1.00000
     16       8.9040      1.00000
     17       8.9108      1.00000
     18       9.0801      1.00000
     19      10.0008      1.00000
     20      10.0775      1.00000
     21      10.4789      1.00000
     22      11.4018     -0.00000
     23      13.8258      0.00000
     24      14.7211      0.00000
     25      19.9236      0.00000
     26      20.0866      0.00000
     27      20.2371      0.00000
     28      21.6486      0.00000
     29      22.7685      0.00000
     30      24.2605      0.00000
     31      24.9358      0.00000
     32      25.8556      0.00000

 k-point    10 :       0.4286    0.4286    0.0000
  band No.  band energies     occupation 
      1       4.4484      1.00000
      2       5.2089      1.00000
      3       5.2089      1.00000
      4       5.3464      1.00000
      5       6.1123      1.00000
      6       6.1123      1.00000
      7       6.1606      1.00000
      8       6.3693      1.00000
      9       6.4389      1.00000
     10       6.4389      1.00000
     11       6.5283      1.00000
     12       6.9528      1.00000
     13       8.1416      1.00000
     14       8.3808      1.00000
     15       8.4477      1.00000
     16       8.4477      1.00000
     17       8.5699      1.00000
     18       9.1732      1.00000
     19       9.1732      1.00000
     20       9.4800      1.00000
     21      11.4355     -0.00000
     22      12.4904      0.00000
     23      12.4904      0.00000
     24      13.5064      0.00000
     25      20.4025      0.00000
     26      21.2625      0.00000
     27      21.2625      0.00000
     28      21.6627      0.00000
     29      22.6179      0.00000
     30      23.4080      0.00000
     31      23.4080      0.00000
     32      25.1393      0.00000

 k-point    11 :       0.1429    0.1429    0.1429
  band No.  band energies     occupation 
      1       1.5838      1.00000
      2       4.3207      1.00000
      3       4.3207      1.00000
      4       4.3207      1.00000
      5       4.8254      1.00000
      6       4.8254      1.00000
      7       4.8254      1.00000
      8       6.7808      1.00000
      9       7.3150      1.00000
     10       7.3150      1.00000
     11       8.8715      1.00000
     12       8.8715      1.00000
     13       8.8715      1.00000
     14       8.9654      1.00000
     15       8.9654      1.00000
     16       9.8044      1.00000
     17       9.8044      1.00000
     18       9.8044      1.00000
     19      10.9115     -0.00004
     20      10.9115     -0.00004
     21      10.9115     -0.00004
     22      13.5845      0.00000
     23      13.5845      0.00000
     24      13.5845      0.00000
     25      19.2586      0.00000
     26      19.2586      0.00000
     27      19.2586      0.00000
     28      22.4526      0.00000
     29      22.4526      0.00000
     30      22.4526      0.00000
     31      23.6590      0.00000
     32      23.6590      0.00000

 k-point    12 :       0.2857    0.1429    0.1429
  band No.  band energies     occupation 
      1       2.2794      1.00000
      2       4.4733      1.00000
      3       4.7111      1.00000
      4       4.7111      1.00000
      5       5.1317      1.00000
      6       5.3394      1.00000
      7       5.3394      1.00000
      8       6.5040      1.00000
      9       7.4888      1.00000
     10       7.5376      1.00000
     11       7.7570      1.00000
     12       7.7570      1.00000
     13       7.8681      1.00000
     14       8.6983      1.00000
     15       9.1708      1.00000
     16       9.3194      1.00000
     17       9.3342      1.00000
     18       9.3342      1.00000
     19      10.7246      0.91829
     20      10.7594      0.41531
     21      10.7594      0.41531
     22      11.6622     -0.00000
     23      14.9649      0.00000
     24      14.9649      0.00000
     25      17.9912      0.00000
     26      17.9912      0.00000
     27      21.1672      0.00000
     28      22.2812      0.00000
     29      22.2812      0.00000
     30      24.2513      0.00000
     31      24.2515      0.00000
     32      25.0274      0.00000

 k-point    13 :       0.4286    0.1429    0.1429
  band No.  band energies     occupation 
      1       3.2903      1.00000
      2       4.2207      1.00000
      3       5.3173      1.00000
      4       5.3173      1.00000
      5       5.5670      1.00000
      6       5.7870      1.00000
      7       5.7870      1.00000
      8       6.0485      1.00000
      9       6.8243      1.00000
     10       6.8243      1.00000
     11       7.2147      1.00000
     12       7.3715      1.00000
     13       7.9355      1.00000
     14       8.5003      1.00000
     15       8.8206      1.00000
     16       8.8206      1.00000
     17       9.0086      1.00000
     18       9.8086      1.00000
     19      10.0823      1.00000
     20      10.3197      1.00000
     21      10.6321      1.00147
     22      10.6321      1.00147
     23      16.0677      0.00000
     24      16.0677      0.00000
     25      17.2276      0.00000
     26      17.2276      0.00000
     27      22.0854      0.00000
     28      22.0854      0.00000
     29      23.1597      0.00000
     30      24.1875      0.00000
     31      24.1876      0.00000
     32      24.7581      0.00000

 k-point    14 :       0.2857    0.2857    0.1429
  band No.  band energies     occupation 
      1       2.8495      1.00000
      2       4.7753      1.00000
      3       4.7753      1.00000
      4       4.8385      1.00000
      5       5.6709      1.00000
      6       5.6709      1.00000
      7       5.7983      1.00000
      8       6.5400      1.00000
      9       7.0753      1.00000
     10       7.0753      1.00000
     11       7.4248      1.00000
     12       7.4553      1.00000
     13       7.5400      1.00000
     14       8.7684      1.00000
     15       8.7986      1.00000
     16       8.8052      1.00000
     17       8.8052      1.00000
     18       9.6441      1.00000
     19      10.5613      1.00000
     20      10.5640      1.00000
     21      10.5640      1.00000
     22      12.8627      0.00000
     23      12.8627      0.00000
     24      16.0255      0.00000
     25      16.2638      0.00000
     26      19.4339      0.00000
     27      19.4339      0.00000
     28      22.5543      0.00000
     29      24.3707      0.00000
     30      24.7491      0.00000
     31      24.7492      0.00000
     32      25.4616      0.00000

 k-point    15 :       0.4286    0.2857    0.1429
  band No.  band energies     occupation 
      1       3.6614      1.00000
      2       4.4414      1.00000
      3       5.1304      1.00000
      4       5.1694      1.00000
      5       5.9832      1.00000
      6       5.9906      1.00000
      7       6.1179      1.00000
      8       6.3969      1.00000
      9       6.7854      1.00000
     10       6.8000      1.00000
     11       7.1271      1.00000
     12       7.1680      1.00000
     13       7.7425      1.00000
     14       8.1923      1.00000
     15       8.4078      1.00000
     16       8.4911      1.00000
     17       9.1247      1.00000
     18       9.9510      1.00000
     19      10.3050      1.00000
     20      10.3066      1.00000
     21      10.3635      1.00000
     22      11.3148     -0.00000
     23      14.0174      0.00000
     24      15.0271      0.00000
     25      17.1208      0.00000
     26      18.1431      0.00000
     27      21.1755      0.00000
     28      22.8522      0.00000
     29      23.0236      0.00000
     30      23.9051      0.00000
     31      25.7713      0.00000
     32      26.4510      0.00000

 k-point    16 :       0.4286    0.4286    0.1429
  band No.  band energies     occupation 
      1       4.1585      1.00000
      2       4.6885      1.00000
      3       4.6885      1.00000
      4       4.9038      1.00000
      5       6.3050      1.00000
      6       6.5007      1.00000
      7       6.5007      1.00000
      8       6.7096      1.00000
      9       6.8619      1.00000
     10       6.8619      1.00000
     11       7.0418      1.00000
     12       7.2568      1.00000
     13       7.6589      1.00000
     14       7.9754      1.00000
     15       7.9754      1.00000
     16       7.9958      1.00000
     17       9.1753      1.00000
     18       9.7286      1.00000
     19       9.7286      1.00000
     20       9.8902      1.00000
     21      11.3107     -0.00000
     22      12.4319      0.00000
     23      12.4319      0.00000
     24      13.5554      0.00000
     25      18.2393      0.00000
     26      19.5430      0.00000
     27      19.5430      0.00000
     28      21.1251      0.00000
     29      23.9054      0.00000
     30      25.1342      0.00000
     31      25.1342      0.00000
     32      26.2355      0.00000

 k-point    17 :       0.2857    0.2857    0.2857
  band No.  band energies     occupation 
      1       3.1731      1.00000
      2       4.6448      1.00000
      3       4.6448      1.00000
      4       4.6448      1.00000
      5       6.1248      1.00000
      6       6.1248      1.00000
      7       6.1248      1.00000
      8       6.9684      1.00000
      9       7.2463      1.00000
     10       7.2463      1.00000
     11       7.2463      1.00000
     12       7.3434      1.00000
     13       7.3434      1.00000
     14       8.1666      1.00000
     15       8.1666      1.00000
     16       8.1666      1.00000
     17       9.4904      1.00000
     18       9.4904      1.00000
     19      10.7751      0.18104
     20      10.7751      0.18104
     21      10.7751      0.18104
     22      13.4917      0.00000
     23      13.4917      0.00000
     24      13.4917      0.00000
     25      17.5035      0.00000
     26      17.5035      0.00000
     27      17.5035      0.00000
     28      22.5922      0.00000
     29      25.2596      0.00000
     30      25.2596      0.00000
     31      25.2596      0.00000
     32      26.7813      0.00000

 k-point    18 :       0.4286    0.2857    0.2857
  band No.  band energies     occupation 
      1       3.6503      1.00000
      2       4.1925      1.00000
      3       4.6177      1.00000
      4       4.6177      1.00000
      5       6.2598      1.00000
      6       6.2598      1.00000
      7       6.6606      1.00000
      8       7.1155      1.00000
      9       7.1950      1.00000
     10       7.2412      1.00000
     11       7.3819      1.00000
     12       7.6128      1.00000
     13       7.6128      1.00000
     14       7.6685      1.00000
     15       7.8819      1.00000
     16       7.8819      1.00000
     17       9.9053      1.00000
     18      10.1628      1.00000
     19      10.5656      1.00000
     20      10.5656      1.00000
     21      10.6392      1.00265
     22      11.3453     -0.00000
     23      14.2167      0.00000
     24      14.2167      0.00000
     25      16.2612      0.00000
     26      16.2612      0.00000
     27      19.1602      0.00000
     28      20.8854      0.00000
     29      25.6070      0.00000
     30      25.6073      0.00000
     31      26.3531      0.00000
     32      26.4234      0.00000

 k-point    19 :       0.4286    0.4286    0.2857
  band No.  band energies     occupation 
      1       3.7906      1.00000
      2       4.1229      1.00000
      3       4.1229      1.00000
      4       4.2631      1.00000
      5       6.5535      1.00000
      6       6.6903      1.00000
      7       6.6903      1.00000
      8       7.0296      1.00000
      9       7.2189      1.00000
     10       7.4071      1.00000
     11       7.4071      1.00000
     12       7.4641      1.00000
     13       8.0730      1.00000
     14       8.0793      1.00000
     15       8.0793      1.00000
     16       8.2507      1.00000
     17       9.9340      1.00000
     18      10.4177      1.00000
     19      10.4177      1.00000
     20      10.4438      1.00000
     21      10.9344     -0.00000
     22      12.1965      0.00000
     23      12.1965      0.00000
     24      13.2771      0.00000
     25      16.4033      0.00000
     26      17.5477      0.00000
     27      17.5477      0.00000
     28      19.1171      0.00000
     29      25.6503      0.00000
     30      25.8339      0.00000
     31      25.8616      0.00000
     32      25.8618      0.00000

 k-point    20 :       0.4286    0.4286    0.4286
  band No.  band energies     occupation 
      1       3.6597      1.00000
      2       3.8213      1.00000
      3       3.8213      1.00000
      4       3.8213      1.00000
      5       6.8535      1.00000
      6       6.8535      1.00000
      7       6.8535      1.00000
      8       7.0306      1.00000
      9       7.0306      1.00000
     10       7.1176      1.00000
     11       7.1176      1.00000
     12       7.1176      1.00000
     13       9.1976      1.00000
     14       9.1976      1.00000
     15       9.1976      1.00000
     16       9.4964      1.00000
     17      10.5017      1.00000
     18      10.5017      1.00000
     19      10.6926      1.03544
     20      10.6926      1.03544
     21      10.6926      1.03544
     22      11.8074     -0.00000
     23      11.8074     -0.00000
     24      11.8074     -0.00000
     25      16.4138      0.00000
     26      16.4138      0.00000
     27      16.4138      0.00000
     28      17.4953      0.00000
     29      25.2257      0.00000
     30      25.2979      0.00000
     31      25.2979      0.00000
     32      25.2979      0.00000

 spin component 2

 k-point     1 :       0.0000    0.0000    0.0000
  band No.  band energies     occupation 
      1       0.8409      1.00000
      2       4.0048      1.00000
      3       4.0048      1.00000
      4       4.0048      1.00000
      5       4.4708      1.00000
      6       4.4708      1.00000
      7       4.4708      1.00000
      8       7.1989      1.00000
      9       7.1989      1.00000
     10       7.1989      1.00000
     11       9.2394      1.00000
     12       9.2394      1.00000
     13      10.8041     -0.02440
     14      10.8041     -0.02440
     15      10.8041     -0.02440
     16      11.3018     -0.00000
     17      11.3018     -0.00000
     18      11.3018     -0.00000
     19      11.3018     -0.00000
     20      11.3018     -0.00000
     21      11.3018     -0.00000
     22      12.5699      0.00000
     23      12.5699      0.00000
     24      12.5699      0.00000
     25      19.3622      0.00000
     26      19.3622      0.00000
     27      19.3622      0.00000
     28      22.0489      0.00000
     29      22.0489      0.00000
     30      22.0489      0.00000
     31      22.0489      0.00000
     32      22.0489      0.00000

 k-point     2 :       0.1429    0.0000    0.0000
  band No.  band energies     occupation 
      1       1.1071      1.00000
      2       4.0977      1.00000
      3       4.1985      1.00000
      4       4.1985      1.00000
      5       4.5797      1.00000
      6       4.6355      1.00000
      7       4.6355      1.00000
      8       7.0265      1.00000
      9       7.3350      1.00000
     10       7.3350      1.00000
     11       9.0498      1.00000
     12       9.3087      1.00000
     13       9.9940      1.00000
     14       9.9940      1.00000
     15      10.5179      1.00000
     16      10.5179      1.00000
     17      10.7168      0.97704
     18      10.9649     -0.00000
     19      10.9649     -0.00000
     20      11.3024     -0.00000
     21      11.3024     -0.00000
     22      11.3372     -0.00000
     23      14.0235      0.00000
     24      14.0235      0.00000
     25      18.8779      0.00000
     26      18.8779      0.00000
     27      21.0177      0.00000
     28      21.8104      0.00000
     29      21.8104      0.00000
     30      22.2770      0.00000
     31      22.2771      0.00000
     32      22.6741      0.00000

 k-point     3 :       0.2857    0.0000    0.0000
  band No.  band energies     occupation 
      1       1.8706      1.00000
      2       4.2508      1.00000
      3       4.7143      1.00000
      4       4.7143      1.00000
      5       4.8955      1.00000
      6       5.1261      1.00000
      7       5.1261      1.00000
      8       6.5719      1.00000
      9       7.7371      1.00000
     10       7.7371      1.00000
     11       8.4080      1.00000
     12       8.4080      1.00000
     13       8.5593      1.00000
     14       9.3178      1.00000
     15       9.5067      1.00000
     16       9.7736      1.00000
     17       9.7736      1.00000
     18      10.1604      1.00000
     19      10.1604      1.00000
     20      10.4787      1.00000
     21      11.3037     -0.00000
     22      11.3037     -0.00000
     23      16.0218      0.00000
     24      16.0218      0.00000
     25      18.1496      0.00000
     26      18.1496      0.00000
     27      21.0479      0.00000
     28      21.0479      0.00000
     29      22.5038      0.00000
     30      22.5038      0.00000
     31      24.3154      0.00000
     32      24.3172      0.00000

 k-point     4 :       0.4286    0.0000    0.0000
  band No.  band energies     occupation 
      1       2.9820      1.00000
      2       3.9835      1.00000
      3       5.2709      1.00000
      4       5.2709      1.00000
      5       5.3831      1.00000
      6       5.9321      1.00000
      7       5.9321      1.00000
      8       5.9769      1.00000
      9       7.0356      1.00000
     10       7.0356      1.00000
     11       8.0319      1.00000
     12       8.0558      1.00000
     13       8.3844      1.00000
     14       8.3844      1.00000
     15       9.0180      1.00000
     16       9.0180      1.00000
     17       9.2277      1.00000
     18       9.2277      1.00000
     19       9.8038      1.00000
     20      10.1500      1.00000
     21      11.3049     -0.00000
     22      11.3049     -0.00000
     23      17.7507      0.00000
     24      17.7507      0.00000
     25      17.9918      0.00000
     26      17.9918      0.00000
     27      19.7349      0.00000
     28      19.7349      0.00000
     29      22.5663      0.00000
     30      22.5663      0.00000
     31      26.5161      0.00000
     32      26.5162      0.00000

 k-point     5 :       0.1429    0.1429    0.0000
  band No.  band energies     occupation 
      1       1.3642      1.00000
      2       4.2966      1.00000
      3       4.2966      1.00000
      4       4.3375      1.00000
      5       4.7382      1.00000
      6       4.7382      1.00000
      7       4.8302      1.00000
      8       6.9539      1.00000
      9       7.3867      1.00000
     10       7.4313      1.00000
     11       9.0062      1.00000
     12       9.2836      1.00000
     13       9.4362      1.00000
     14       9.4362      1.00000
     15       9.4460      1.00000
     16      10.2888      1.00000
     17      10.5104      1.00000
     18      10.5104      1.00000
     19      10.9636     -0.00000
     20      10.9636     -0.00000
     21      11.0869     -0.00000
     22      12.9125      0.00000
     23      12.9125      0.00000
     24      14.9400      0.00000
     25      18.2029      0.00000
     26      20.3155      0.00000
     27      20.3155      0.00000
     28      21.3489      0.00000
     29      22.4229      0.00000
     30      22.4229      0.00000
     31      23.0341      0.00000
     32      23.0346      0.00000

 k-point     6 :       0.2857    0.1429    0.0000
  band No.  band energies     occupation 
      1       2.1016      1.00000
      2       4.4616      1.00000
      3       4.7504      1.00000
      4       4.8321      1.00000
      5       5.0355      1.00000
      6       5.2092      1.00000
      7       5.3444      1.00000
      8       6.5815      1.00000
      9       7.6697      1.00000
     10       7.7453      1.00000
     11       7.9447      1.00000
     12       8.2382      1.00000
     13       8.3247      1.00000
     14       8.6588      1.00000
     15       9.5290      1.00000
     16       9.6633      1.00000
     17       9.8602      1.00000
     18      10.1286      1.00000
     19      10.1562      1.00000
     20      10.9596     -0.00000
     21      10.9741     -0.00000
     22      11.4173     -0.00000
     23      14.5581      0.00000
     24      16.6944      0.00000
     25      17.1897      0.00000
     26      19.4838      0.00000
     27      20.7873      0.00000
     28      21.6313      0.00000
     29      22.7141      0.00000
     30      23.3605      0.00000
     31      23.9183      0.00000
     32      24.0159      0.00000

 k-point     7 :       0.4286    0.1429    0.0000
  band No.  band energies     occupation 
      1       3.1812      1.00000
      2       4.1838      1.00000
      3       5.3470      1.00000
      4       5.4285      1.00000
      5       5.4919      1.00000
      6       5.9480      1.00000
      7       5.9771      1.00000
      8       6.0420      1.00000
      9       6.7204      1.00000
     10       7.0102      1.00000
     11       7.5515      1.00000
     12       7.6438      1.00000
     13       8.3824      1.00000
     14       8.6787      1.00000
     15       9.0271      1.00000
     16       9.1322      1.00000
     17       9.2229      1.00000
     18       9.3579      1.00000
     19       9.9647      1.00000
     20      10.5374      1.00000
     21      10.9530     -0.00000
     22      10.9544     -0.00000
     23      15.7714      0.00000
     24      16.4786      0.00000
     25      18.5767      0.00000
     26      19.4022      0.00000
     27      20.0408      0.00000
     28      20.2995      0.00000
     29      23.5996      0.00000
     30      23.8789      0.00000
     31      24.8748      0.00000
     32      26.0989      0.00000

 k-point     8 :       0.2857    0.2857    0.0000
  band No.  band energies     occupation 
      1       2.7615      1.00000
      2       4.9667      1.00000
      3       5.0435      1.00000
      4       5.0435      1.00000
      5       5.4461      1.00000
      6       5.4461      1.00000
      7       5.8192      1.00000
      8       6.4882      1.00000
      9       7.1389      1.00000
     10       7.1389      1.00000
     11       7.5905      1.00000
     12       7.7001      1.00000
     13       7.9222      1.00000
     14       8.5490      1.00000
     15       9.2974      1.00000
     16       9.6566      1.00000
     17       9.6566      1.00000
     18       9.9141      1.00000
     19      10.1491      1.00000
     20      10.1491      1.00000
     21      10.4883      1.00000
     22      12.7935      0.00000
     23      12.7935      0.00000
     24      15.7959      0.00000
     25      18.2110      0.00000
     26      20.4390      0.00000
     27      21.1676      0.00000
     28      21.1676      0.00000
     29      23.1174      0.00000
     30      23.1174      0.00000
     31      25.4547      0.00000
     32      25.5286      0.00000

 k-point     9 :       0.4286    0.2857    0.0000
  band No.  band energies     occupation 
      1       3.7324      1.00000
      2       4.7142      1.00000
      3       5.4328      1.00000
      4       5.7878      1.00000
      5       5.7973      1.00000
      6       6.0941      1.00000
      7       6.1507      1.00000
      8       6.1602      1.00000
      9       6.1869      1.00000
     10       6.8952      1.00000
     11       6.9015      1.00000
     12       7.3185      1.00000
     13       8.4398      1.00000
     14       8.5493      1.00000
     15       8.8860      1.00000
     16       9.0578      1.00000
     17       9.0687      1.00000
     18       9.2312      1.00000
     19      10.1599      1.00000
     20      10.2389      1.00000
     21      10.6439      1.00383
     22      11.5557     -0.00000
     23      13.9389      0.00000
     24      14.8121      0.00000
     25      19.9891      0.00000
     26      20.1637      0.00000
     27      20.3010      0.00000
     28      21.7073      0.00000
     29      22.8224      0.00000
     30      24.3077      0.00000
     31      24.9911      0.00000
     32      25.9028      0.00000

 k-point    10 :       0.4286    0.4286    0.0000
  band No.  band energies     occupation 
      1       4.4928      1.00000
      2       5.2719      1.00000
      3       5.2719      1.00000
      4       5.4418      1.00000
      5       6.2259      1.00000
      6       6.2259      1.00000
      7       6.2772      1.00000
      8       6.4741      1.00000
      9       6.5678      1.00000
     10       6.5678      1.00000
     11       6.6389      1.00000
     12       7.0858      1.00000
     13       8.3021      1.00000
     14       8.5415      1.00000
     15       8.6042      1.00000
     16       8.6042      1.00000
     17       8.7200      1.00000
     18       9.3269      1.00000
     19       9.3269      1.00000
     20       9.6372      1.00000
     21      11.5928     -0.00000
     22      12.6316      0.00000
     23      12.6316      0.00000
     24      13.6250      0.00000
     25      20.4707      0.00000
     26      21.3223      0.00000
     27      21.3223      0.00000
     28      21.7289      0.00000
     29      22.6733      0.00000
     30      23.4702      0.00000
     31      23.4702      0.00000
     32      25.1994      0.00000

 k-point    11 :       0.1429    0.1429    0.1429
  band No.  band energies     occupation 
      1       1.6080      1.00000
      2       4.4272      1.00000
      3       4.4272      1.00000
      4       4.4272      1.00000
      5       4.9365      1.00000
      6       4.9365      1.00000
      7       4.9365      1.00000
      8       6.9125      1.00000
      9       7.4564      1.00000
     10       7.4564      1.00000
     11       8.9768      1.00000
     12       8.9768      1.00000
     13       8.9768      1.00000
     14       9.1367      1.00000
     15       9.1367      1.00000
     16       9.9750      1.00000
     17       9.9750      1.00000
     18       9.9750      1.00000
     19      11.0862     -0.00000
     20      11.0862     -0.00000
     21      11.0862     -0.00000
     22      13.6761      0.00000
     23      13.6761      0.00000
     24      13.6761      0.00000
     25      19.3162      0.00000
     26      19.3162      0.00000
     27      19.3162      0.00000
     28      22.5204      0.00000
     29      22.5204      0.00000
     30      22.5205      0.00000
     31      23.6918      0.00000
     32      23.6919      0.00000

 k-point    12 :       0.2857    0.1429    0.1429
  band No.  band energies     occupation 
      1       2.3056      1.00000
      2       4.5663      1.00000
      3       4.8207      1.00000
      4       4.8207      1.00000
      5       5.2437      1.00000
      6       5.4491      1.00000
      7       5.4491      1.00000
      8       6.6301      1.00000
      9       7.6322      1.00000
     10       7.6810      1.00000
     11       7.8643      1.00000
     12       7.8643      1.00000
     13       7.9696      1.00000
     14       8.8615      1.00000
     15       9.3309      1.00000
     16       9.4920      1.00000
     17       9.4975      1.00000
     18       9.4975      1.00000
     19      10.9023     -0.00012
     20      10.9297     -0.00000
     21      10.9297     -0.00000
     22      11.7810     -0.00000
     23      15.0592      0.00000
     24      15.0592      0.00000
     25      18.0474      0.00000
     26      18.0474      0.00000
     27      21.2201      0.00000
[...]
     12       7.3526      1.00000
     13       7.8110      1.00000
     14       8.1256      1.00000
     15       8.1256      1.00000
     16       8.1508      1.00000
     17       9.3354      1.00000
     18       9.8894      1.00000
     19       9.8894      1.00000
     20      10.0545      1.00000
     21      11.4671     -0.00000
     22      12.5685      0.00000
     23      12.5685      0.00000
     24      13.6687      0.00000
     25      18.3221      0.00000
     26      19.6160      0.00000
     27      19.6160      0.00000
     28      21.1925      0.00000
     29      23.9589      0.00000
     30      25.1827      0.00000
     31      25.1827      0.00000
     32      26.2727      0.00000

 k-point    17 :       0.2857    0.2857    0.2857
  band No.  band energies     occupation 
      1       3.2167      1.00000
      2       4.7392      1.00000
      3       4.7392      1.00000
      4       4.7392      1.00000
      5       6.2437      1.00000
      6       6.2437      1.00000
      7       6.2437      1.00000
      8       7.0636      1.00000
      9       7.3499      1.00000
     10       7.3499      1.00000
     11       7.3499      1.00000
     12       7.4902      1.00000
     13       7.4902      1.00000
     14       8.3205      1.00000
     15       8.3205      1.00000
     16       8.3205      1.00000
     17       9.6580      1.00000
     18       9.6580      1.00000
     19      10.9512     -0.00000
     20      10.9512     -0.00000
     21      10.9512     -0.00000
     22      13.5957      0.00000
     23      13.5957      0.00000
     24      13.5957      0.00000
     25      17.5794      0.00000
     26      17.5794      0.00000
     27      17.5794      0.00000
     28      22.6493      0.00000
     29      25.3053      0.00000
     30      25.3053      0.00000
     31      25.3053      0.00000
     32      26.7812      0.00000

 k-point    18 :       0.4286    0.2857    0.2857
  band No.  band energies     occupation 
      1       3.7102      1.00000
      2       4.2697      1.00000
      3       4.7084      1.00000
      4       4.7084      1.00000
      5       6.3898      1.00000
      6       6.3898      1.00000
      7       6.7924      1.00000
      8       7.2575      1.00000
      9       7.2919      1.00000
     10       7.3289      1.00000
     11       7.5293      1.00000
     12       7.7158      1.00000
     13       7.7158      1.00000
     14       7.8182      1.00000
     15       8.0297      1.00000
     16       8.0297      1.00000
     17      10.0584      1.00000
     18      10.3356      1.00000
     19      10.7378      0.76420
     20      10.7378      0.76420
     21      10.8157     -0.03546
     22      11.4705     -0.00000
     23      14.3033      0.00000
     24      14.3033      0.00000
     25      16.3637      0.00000
     26      16.3637      0.00000
     27      19.2373      0.00000
     28      20.9557      0.00000
     29      25.6432      0.00000
     30      25.6434      0.00000
     31      26.3664      0.00000
     32      26.4429      0.00000

 k-point    19 :       0.4286    0.4286    0.2857
  band No.  band energies     occupation 
      1       3.8636      1.00000
      2       4.2055      1.00000
      3       4.2055      1.00000
      4       4.3499      1.00000
      5       6.6900      1.00000
      6       6.8300      1.00000
      7       6.8300      1.00000
      8       7.1743      1.00000
      9       7.3671      1.00000
     10       7.5555      1.00000
     11       7.5555      1.00000
     12       7.6140      1.00000
     13       8.1401      1.00000
     14       8.1657      1.00000
     15       8.1657      1.00000
     16       8.3422      1.00000
     17      10.1020      1.00000
     18      10.5875      1.00001
     19      10.5875      1.00001
     20      10.6159      1.00032
     21      11.0905     -0.00000
     22      12.3166      0.00000
     23      12.3166      0.00000
     24      13.3709      0.00000
     25      16.5133      0.00000
     26      17.6416      0.00000
     27      17.6416      0.00000
     28      19.2007      0.00000
     29      25.6713      0.00000
     30      25.8407      0.00000
     31      25.8729      0.00000
     32      25.8729      0.00000

 k-point    20 :       0.4286    0.4286    0.4286
  band No.  band energies     occupation 
      1       3.7397      1.00000
      2       3.9054      1.00000
      3       3.9054      1.00000
      4       3.9054      1.00000
      5       6.9975      1.00000
      6       6.9975      1.00000
      7       6.9975      1.00000
      8       7.1773      1.00000
      9       7.1773      1.00000
     10       7.2649      1.00000
     11       7.2649      1.00000
     12       7.2649      1.00000
     13       9.2789      1.00000
     14       9.2789      1.00000
     15       9.2789      1.00000
     16       9.5218      1.00000
     17      10.6760      1.02450
     18      10.6760      1.02450
     19      10.8687     -0.00287
     20      10.8687     -0.00287
     21      10.8687     -0.00287
     22      11.9076     -0.00000
     23      11.9076     -0.00000
     24      11.9076     -0.00000
     25      16.5308      0.00000
     26      16.5308      0.00000
     27      16.5308      0.00000
     28      17.5975      0.00000
     29      25.2271      0.00000
     30      25.3009      0.00000
     31      25.3009      0.00000
     32      25.3009      0.00000


--------------------------------------------------------------------------------------------------------


 soft charge-density along one line, spin component           1
         0         1         2         3         4         5         6         7         8         9
 total charge-density along one line

 soft charge-density along one line, spin component           2
         0         1         2         3         4         5         6         7         8         9
 total charge-density along one line

 pseudopotential strength for first ion, spin component:           1
 -2.652  -0.000  -0.000   0.000   0.000  -2.863  -0.000  -0.000
 -0.000  -2.652   0.000   0.000  -0.000  -0.000  -2.863   0.000
 -0.000   0.000  -2.652  -0.000   0.000  -0.000   0.000  -2.864
  0.000   0.000  -0.000  -2.652  -0.000   0.000   0.000  -0.000
  0.000  -0.000   0.000  -0.000  -2.652   0.000  -0.000   0.000
 -2.863  -0.000  -0.000   0.000   0.000  -3.056  -0.000  -0.000
 -0.000  -2.863   0.000   0.000  -0.000  -0.000  -3.056   0.000
 -0.000   0.000  -2.864  -0.000   0.000  -0.000   0.000  -3.056
  0.000   0.000  -0.000  -2.863  -0.000   0.000   0.000  -0.000
  0.000  -0.000   0.000  -0.000  -2.864   0.000  -0.000   0.000
 -0.000  -0.000  -0.000   0.000   0.000  -0.000  -0.000  -0.000
 -0.000  -0.000   0.000   0.000   0.000  -0.000  -0.000  -0.000
 -0.000   0.000   0.000   0.000   0.000  -0.000   0.000   0.000
  0.000  -0.000   0.000  -0.000   0.000   0.000  -0.000   0.000
 -0.000   0.000   0.000   0.000  -0.000  -0.000   0.000   0.000
 -0.000   0.000   0.000   0.000   0.000  -0.000   0.000   0.000
  0.000  -0.000   0.000  -0.000   0.000   0.000  -0.000   0.000
 -0.000   0.000   0.000   0.000  -0.000  -0.000   0.000   0.000
 pseudopotential strength for first ion, spin component:           2
 -2.589  -0.000  -0.000   0.000   0.000  -2.802  -0.000  -0.000
 -0.000  -2.589   0.000   0.000  -0.000  -0.000  -2.802   0.000
 -0.000   0.000  -2.585  -0.000   0.000  -0.000   0.000  -2.798
  0.000   0.000  -0.000  -2.589   0.000   0.000   0.000  -0.000
  0.000  -0.000   0.000   0.000  -2.585   0.000  -0.000   0.000
 -2.802  -0.000  -0.000   0.000   0.000  -2.996  -0.000  -0.000
 -0.000  -2.802   0.000   0.000  -0.000  -0.000  -2.996   0.000
 -0.000   0.000  -2.798  -0.000   0.000  -0.000   0.000  -2.993
  0.000   0.000  -0.000  -2.802   0.000   0.000   0.000  -0.000
  0.000  -0.000   0.000   0.000  -2.798   0.000  -0.000   0.000
 -0.000  -0.000   0.000  -0.000   0.000  -0.000  -0.000  -0.000
 -0.000  -0.000   0.000  -0.000   0.000  -0.000  -0.000  -0.000
 -0.000   0.000   0.000  -0.000   0.000  -0.000   0.000   0.000
 -0.000  -0.000   0.000  -0.000   0.000  -0.000  -0.000   0.000
 -0.000  -0.000   0.000   0.000  -0.000  -0.000  -0.000   0.000
 -0.000   0.000   0.000  -0.000   0.000  -0.000   0.000   0.000
 -0.000  -0.000   0.000  -0.000   0.000  -0.000  -0.000   0.000
 -0.000  -0.000   0.000   0.000  -0.000  -0.000  -0.000   0.000
 total augmentation occupancy for first ion, spin component:           1
  1.800   0.000   0.000   0.000   0.000   0.000   0.000   0.000   0.000   0.000   0.000   0.000   0.000   0.000   0.000   0.000
  0.000   1.800   0.000   0.000   0.000   0.000   0.000   0.000   0.000   0.000   0.000   0.000   0.000   0.000   0.000   0.000
  0.000   0.000   1.800   0.000   0.000   0.000   0.000   0.000   0.000   0.000   0.000   0.000   0.000   0.000   0.000   0.000
  0.000   0.000   0.000   1.800   0.000   0.000   0.000   0.000   0.000   0.000   0.000   0.000   0.000   0.000   0.000   0.000
  0.000   0.000   0.000   0.000   1.800   0.000   0.000   0.000   0.000   0.000   0.000   0.000   0.000   0.000   0.000   0.000
  0.000   0.000   0.000   0.000   0.000   0.000   0.000   0.000   0.000   0.000   0.000   0.000   0.000   0.000   0.000   0.000
  0.000   0.000   0.000   0.000   0.000   0.000   0.000   0.000   0.000   0.000   0.000   0.000   0.000   0.000   0.000   0.000
  0.000   0.000   0.000   0.000   0.000   0.000   0.000   0.000   0.000   0.000   0.000   0.000   0.000   0.000   0.000   0.000
  0.000   0.000   0.000   0.000   0.000   0.000   0.000   0.000   0.000   0.000   0.000   0.000   0.000   0.000   0.000   0.000
  0.000   0.000   0.000   0.000   0.000   0.000   0.000   0.000   0.000   0.000   0.000   0.000   0.000   0.000   0.000   0.000
  0.000   0.000   0.000   0.000   0.000   0.000   0.000   0.000   0.000   0.000   1.000   0.000   0.000   0.000   0.000   0.000
  0.000   0.000   0.000   0.000   0.000   0.000   0.000   0.000   0.000   0.000   0.000   0.000   0.000   0.000   0.000   0.000
  0.000   0.000   0.000   0.000   0.000   0.000   0.000   0.000   0.000   0.000   0.000   0.000   0.000   0.000   0.000   0.000
  0.000   0.000   0.000   0.000   0.000   0.000   0.000   0.000   0.000   0.000   0.000   0.000   0.000   0.000   0.000   0.000
  0.000   0.000   0.000   0.000   0.000   0.000   0.000   0.000   0.000   0.000   0.000   0.000   0.000   0.000   0.000   0.000
  0.000   0.000   0.000   0.000   0.000   0.000   0.000   0.000   0.000   0.000   0.000   0.000   0.000   0.000   0.000   0.000
  0.000   0.000   0.000   0.000   0.000   0.000   0.000   0.000   0.000   0.000   0.000   0.000   0.000   0.000   0.000   0.000
  0.000   0.000   0.000   0.000   0.000   0.000   0.000   0.000   0.000   0.000   0.000   0.000   0.000   0.000   0.000   0.000
 total augmentation occupancy for first ion, spin component:           2
  0.180   0.000   0.000   0.000   0.000   0.000   0.000   0.000   0.000   0.000   0.000   0.000   0.000   0.000   0.000   0.000
  0.000   0.180   0.000   0.000   0.000   0.000   0.000   0.000   0.000   0.000   0.000   0.000   0.000   0.000   0.000   0.000
  0.000   0.000   0.180   0.000   0.000   0.000   0.000   0.000   0.000   0.000   0.000   0.000   0.000   0.000   0.000   0.000
  0.000   0.000   0.000   0.180   0.000   0.000   0.000   0.000   0.000   0.000   0.000   0.000   0.000   0.000   0.000   0.000
  0.000   0.000   0.000   0.000   0.180   0.000   0.000   0.000   0.000   0.000   0.000   0.000   0.000   0.000   0.000   0.000
  0.000   0.000   0.000   0.000   0.000   0.000   0.000   0.000   0.000   0.000   0.000   0.000   0.000   0.000   0.000   0.000
  0.000   0.000   0.000   0.000   0.000   0.000   0.000   0.000   0.000   0.000   0.000   0.000   0.000   0.000   0.000   0.000
  0.000   0.000   0.000   0.000   0.000   0.000   0.000   0.000   0.000   0.000   0.000   0.000   0.000   0.000   0.000   0.000
  0.000   0.000   0.000   0.000   0.000   0.000   0.000   0.000   0.000   0.000   0.000   0.000   0.000   0.000   0.000   0.000
  0.000   0.000   0.000   0.000   0.000   0.000   0.000   0.000   0.000   0.000   0.000   0.000   0.000   0.000   0.000   0.000
  0.000   0.000   0.000   0.000   0.000   0.000   0.000   0.000   0.000   0.000   0.100   0.000   0.000   0.000   0.000   0.000
  0.000   0.000   0.000   0.000   0.000   0.000   0.000   0.000   0.000   0.000   0.000   0.000   0.000   0.000   0.000   0.000
  0.000   0.000   0.000   0.000   0.000   0.000   0.000   0.000   0.000   0.000   0.000   0.000   0.000   0.000   0.000   0.000
  0.000   0.000   0.000   0.000   0.000   0.000   0.000   0.000   0.000   0.000   0.000   0.000   0.000   0.000   0.000   0.000
  0.000   0.000   0.000   0.000   0.000   0.000   0.000   0.000   0.000   0.000   0.000   0.000   0.000   0.000   0.000   0.000
  0.000   0.000   0.000   0.000   0.000   0.000   0.000   0.000   0.000   0.000   0.000   0.000   0.000   0.000   0.000   0.000
  0.000   0.000   0.000   0.000   0.000   0.000   0.000   0.000   0.000   0.000   0.000   0.000   0.000   0.000   0.000   0.000
  0.000   0.000   0.000   0.000   0.000   0.000   0.000   0.000   0.000   0.000   0.000   0.000   0.000   0.000   0.000   0.000


------------------------ aborting loop because EDIFF is reached ----------------------------------------


    CHARGE:  cpu time    0.1040: real time    0.1040
    FORLOC:  cpu time    0.0003: real time    0.0003
    FORNL :  cpu time    0.2497: real time    0.2497
    STRESS:  cpu time    3.4642: real time    1.3501
    FORCOR:  cpu time    0.0370: real time    0.0074
    FORHAR:  cpu time    0.0057: real time    0.0011
    OFIELD:  cpu time    0.0001: real time    0.0000

  FORCE on cell =-STRESS in cart. coord.  units (eV):
  Direction    XX          YY          ZZ          XY          YZ          ZX
  --------------------------------------------------------------------------------------
  Alpha Z   245.13090   245.13090   245.13090
  Ewald   -1111.78466 -1111.78466 -1111.78466    -0.00000    -0.00000    -0.00000
  Hartree    85.08084    85.08084    85.08084    -0.00000    -0.00000    -0.00000
  E(xc)    -178.27287  -178.27287  -178.27287     0.00000    -0.00000     0.00000
  Local     145.23061   145.23061   145.23061    -0.00000    -0.00000     0.00000
  n-local    33.58399    11.99521    21.35950    13.79127     8.58485     6.88020
  augment   210.44896   210.44896   210.44896     0.00000    -0.00000     0.00000
  Kinetic   592.22696   578.13566   577.19861     6.20699    -1.63677    -1.04672
  Fock        0.00000     0.00000     0.00000     0.00000     0.00000     0.00000
  -------------------------------------------------------------------------------------
  Total       0.66709     0.66709     0.66709    -0.00000     0.00000    -0.00000
  in kB      17.22592    17.22592    17.22592    -0.00000     0.00000    -0.00000
  external pressure =       17.23 kB  Pullay stress =        0.00 kB


 VOLUME and BASIS-vectors are now :
 -----------------------------------------------------------------------------
  energy-cutoff  :      400.00
  volume of cell :       62.05
      direct lattice vectors                 reciprocal lattice vectors
     3.958864229  0.000000000  0.000000000     0.252597700  0.000000000  0.000000000
     0.000000000  3.958864229  0.000000000     0.000000000  0.252597700  0.000000000
     0.000000000  0.000000000  3.958864229     0.000000000  0.000000000  0.252597700

  length of vectors
     3.958864229  3.958864229  3.958864229     0.252597700  0.252597700  0.252597700


 FORCES acting on ions
    electron-ion (+dipol)            ewald-force                    non-local-force                 convergence-correction
 -----------------------------------------------------------------------------------------------
   -.198E-14 -.202E-15 -.658E-16   0.839E-14 -.815E-14 -.156E-15   0.212E-21 0.116E-20 -.582E-21   0.435E-18 0.903E-19 0.181E-18
   0.666E-13 0.668E-13 -.279E-12   0.147E-14 -.148E-14 -.325E-15   0.476E-21 0.529E-21 0.000E+00   0.801E-17 0.894E-17 0.620E-16
   0.671E-13 -.316E-15 0.392E-12   0.580E-14 0.306E-14 -.113E-14   -.212E-21 0.529E-22 -.212E-21   0.808E-17 0.143E-18 -.372E-16
   -.825E-15 0.682E-13 0.676E-13   -.166E-13 0.973E-14 -.130E-14   0.000E+00 0.486E-21 -.529E-22   0.130E-18 0.787E-17 0.945E-17
 -----------------------------------------------------------------------------------------------
   0.131E-12 0.134E-12 0.180E-12   -.981E-15 0.317E-14 -.291E-14   0.476E-21 0.223E-20 -.847E-21   0.167E-16 0.170E-16 0.344E-16


 POSITION                                       TOTAL-FORCE (eV/Angst)
 -----------------------------------------------------------------------------------
      0.00000      0.00000      0.00000        -0.000000     -0.000000     -0.000000
      1.97943      1.97943      0.00000        -0.000000     -0.000000     -0.000000
      1.97943      0.00000      1.97943         0.000000      0.000000      0.000000
      0.00000      1.97943      1.97943         0.000000      0.000000     -0.000000
 -----------------------------------------------------------------------------------
    total drift:                                0.000000      0.000000      0.000000


--------------------------------------------------------------------------------------------------------



  FREE ENERGIE OF THE ION-ELECTRON SYSTEM (eV)
  ---------------------------------------------------
  free  energy   TOTEN  =       -24.42298274 eV

  energy  without entropy=      -24.42139878  energy(sigma->0) =      -24.42245475



--------------------------------------------------------------------------------------------------------


    POTLOK:  cpu time    0.0850: real time    0.0170


--------------------------------------------------------------------------------------------------------


 stress matrix after NEB project (eV)
      0.66709      0.00000     -0.00000
     -0.00000      0.66709     -0.00000
      0.00000      0.00000      0.66709
  FORCES: max atom, RMS     0.000000    0.000000
  FORCE total and by dimension    0.000000    0.000000
  Stress total and by dimension    1.155432    0.667089
 writing wavefunctions
     LOOP+:  cpu time 5293.4313: real time 2263.2739
    4ORBIT:  cpu time    0.0000: real time    0.0000

volume of typ            1:    83.2 %

total charge     

# of ion       s       p       d       tot
------------------------------------------
    1        0.530   0.462   7.742   8.735
    2        0.530   0.462   7.742   8.735
    3        0.530   0.462   7.742   8.735
    4        0.530   0.462   7.742   8.735
--------------------------------------------------
tot           2.12    1.85   30.97   34.94

magnetization (x)

# of ion       s       p       d       tot
------------------------------------------
    1       -0.001  -0.005   0.137   0.131
    2       -0.001  -0.005   0.137   0.131
    3       -0.001  -0.005   0.137   0.131
    4       -0.001  -0.005   0.137   0.131
--------------------------------------------------
tot          -0.00   -0.02    0.55    0.53


 total amount of memory used by VASP MPI-rank0    39004. kBytes
=======================================================================

   base      :      30000. kBytes
   nonl-proj :       3391. kBytes
   fftplans  :        266. kBytes
   grid      :       2090. kBytes
   one-center:        124. kBytes
   wavefun   :       3133. kBytes

  
  
 General timing and accounting informations for this job:
 ========================================================
  
                  Total CPU time used (sec):     5330.635
                            User time (sec):     1088.953
                          System time (sec):     4241.681
                         Elapsed time (sec):     2283.347
  
                   Maximum memory used (kb):       81080.
                   Average memory used (kb):           0.
  
                          Minor page faults:         5205
                          Major page faults:            0
                 Voluntary context switches:       127634
