PROCAR new format
# of k-points:   20         # of bands:   32         # of ions:    4

 k-point     1 :    0.00000000 0.00000000 0.00000000     weight = 0.00291545

band     1 # energy    0.81726819 # occ.  1.00000000

ion      s      p      d    tot
    1  0.165  0.000  0.000  0.165
    2  0.165  0.000  0.000  0.165
    3  0.165  0.000  0.000  0.165
    4  0.165  0.000  0.000  0.165
tot    0.658  0.000  0.000  0.658

band     2 # energy    3.89861146 # occ.  1.00000000

ion      s      p      d    tot
    1  0.017  0.000  0.187  0.204
    2  0.005  0.000  0.251  0.255
    3  0.043  0.000  0.054  0.097
    4  0.006  0.000  0.241  0.248
tot    0.071  0.000  0.733  0.804

band     3 # energy    3.89861148 # occ.  1.00000000

ion      s      p      d    tot
    1  0.004  0.000  0.256  0.260
    2  0.045  0.000  0.041  0.086
    3  0.007  0.000  0.237  0.245
    4  0.015  0.000  0.199  0.213
tot    0.071  0.000  0.733  0.804

band     4 # energy    3.89861153 # occ.  1.00000000

ion      s      p      d    tot
    1  0.032  0.000  0.107  0.139
    2  0.003  0.000  0.258  0.261
    3  0.003  0.000  0.258  0.261
    4  0.032  0.000  0.110  0.142
tot    0.071  0.000  0.733  0.804

band     5 # energy    4.35889540 # occ.  1.00000000

ion      s      p      d    tot
    1  0.000  0.000  0.220  0.220
    2  0.000  0.000  0.220  0.220
    3  0.000  0.000  0.220  0.220
    4  0.000  0.000  0.220  0.220
tot    0.000  0.000  0.881  0.881

band     6 # energy    4.35889541 # occ.  1.00000000

ion      s      p      d    tot
    1  0.000  0.000  0.220  0.220
    2  0.000  0.000  0.220  0.220
    3  0.000  0.000  0.220  0.220
    4  0.000  0.000  0.220  0.220
tot    0.000  0.000  0.881  0.881

band     7 # energy    4.35889542 # occ.  1.00000000

ion      s      p      d    tot
    1  0.000  0.000  0.220  0.220
    2  0.000  0.000  0.220  0.220
    3  0.000  0.000  0.220  0.220
    4  0.000  0.000  0.220  0.220
tot    0.000  0.000  0.881  0.881

band     8 # energy    7.05936552 # occ.  1.00000000

ion      s      p      d    tot
    1  0.000  0.000  0.234  0.234
    2  0.000  0.000  0.234  0.234
    3  0.000  0.000  0.234  0.234
    4  0.000  0.000  0.234  0.234
tot    0.000  0.000  0.934  0.934

band     9 # energy    7.05936553 # occ.  1.00000000

ion      s      p      d    tot
    1  0.000  0.000  0.234  0.234
    2  0.000  0.000  0.234  0.234
    3  0.000  0.000  0.234  0.234
    4  0.000  0.000  0.234  0.234
tot    0.000  0.000  0.934  0.934

band    10 # energy    7.05936554 # occ.  1.00000000

ion      s      p      d    tot
    1  0.000  0.000  0.234  0.234
    2  0.000  0.000  0.234  0.234
    3  0.000  0.000  0.234  0.234
    4  0.000  0.000  0.234  0.234
tot    0.000  0.000  0.934  0.934

band    11 # energy    9.06514733 # occ.  1.00000000

ion      s      p      d    tot
    1  0.000  0.000  0.240  0.240
    2  0.000  0.000  0.240  0.240
    3  0.000  0.000  0.240  0.240
    4  0.000  0.000  0.240  0.240
tot    0.000  0.000  0.961  0.961

band    12 # energy    9.06514734 # occ.  1.00000000

ion      s      p      d    tot
    1  0.000  0.000  0.240  0.240
    2  0.000  0.000  0.240  0.240
    3  0.000  0.000  0.240  0.240
    4  0.000  0.000  0.240  0.240
tot    0.000  0.000  0.961  0.961

band    13 # energy   10.61711086 # occ.  1.00036016

ion      s      p      d    tot
    1  0.000  0.000  0.329  0.329
    2  0.000  0.000  0.341  0.341
    3  0.000  0.000  0.044  0.044
    4  0.000  0.000  0.262  0.262
tot    0.000  0.000  0.976  0.976

band    14 # energy   10.61711090 # occ.  1.00036016

ion      s      p      d    tot
    1  0.000  0.000  0.218  0.218
    2  0.000  0.000  0.080  0.080
    3  0.000  0.000  0.358  0.358
    4  0.000  0.000  0.319  0.319
tot    0.000  0.000  0.976  0.976

band    15 # energy   10.61711099 # occ.  1.00036017

ion      s      p      d    tot
    1  0.000  0.000  0.185  0.185
    2  0.000  0.000  0.311  0.311
    3  0.000  0.000  0.329  0.329
    4  0.000  0.000  0.151  0.151
tot    0.000  0.000  0.976  0.976

band    16 # energy   11.12989663 # occ. -0.00000000

ion      s      p      d    tot
    1  0.000  0.000  0.213  0.213
    2  0.000  0.000  0.280  0.280
    3  0.000  0.000  0.230  0.230
    4  0.000  0.000  0.255  0.255
tot    0.000  0.000  0.978  0.978

band    17 # energy   11.12989664 # occ. -0.00000000

ion      s      p      d    tot
    1  0.000  0.000  0.334  0.334
    2  0.000  0.000  0.294  0.294
    3  0.000  0.000  0.139  0.139
    4  0.000  0.000  0.211  0.211
tot    0.000  0.000  0.978  0.978

band    18 # energy   11.12989666 # occ. -0.00000000

ion      s      p      d    tot
    1  0.000  0.000  0.195  0.195
    2  0.000  0.000  0.216  0.216
    3  0.000  0.000  0.414  0.414
    4  0.000  0.000  0.154  0.154
tot    0.000  0.000  0.978  0.978

band    19 # energy   11.12989667 # occ. -0.00000000

ion      s      p      d    tot
    1  0.000  0.000  0.238  0.238
    2  0.000  0.000  0.198  0.198
    3  0.000  0.000  0.140  0.140
    4  0.000  0.000  0.402  0.402
tot    0.000  0.000  0.978  0.978

band    20 # energy   11.12989671 # occ. -0.00000000

ion      s      p      d    tot
    1  0.000  0.000  0.355  0.355
    2  0.000  0.000  0.224  0.224
    3  0.000  0.000  0.225  0.225
    4  0.000  0.000  0.174  0.174
tot    0.000  0.000  0.978  0.978

band    21 # energy   11.12989676 # occ. -0.00000000

ion      s      p      d    tot
    1  0.000  0.000  0.132  0.132
    2  0.000  0.000  0.256  0.256
    3  0.000  0.000  0.320  0.320
    4  0.000  0.000  0.270  0.270
tot    0.000  0.000  0.978  0.978

band    22 # energy   12.56517866 # occ.  0.00000000

ion      s      p      d    tot
    1  0.000  0.157  0.000  0.157
    2  0.000  0.157  0.000  0.157
    3  0.000  0.157  0.000  0.157
    4  0.000  0.157  0.000  0.157
tot    0.000  0.626  0.000  0.626

band    23 # energy   12.56517868 # occ.  0.00000000

ion      s      p      d    tot
    1  0.000  0.157  0.000  0.157
    2  0.000  0.157  0.000  0.157
    3  0.000  0.157  0.000  0.157
    4  0.000  0.157  0.000  0.157
tot    0.000  0.626  0.000  0.626

band    24 # energy   12.56517877 # occ.  0.00000000

ion      s      p      d    tot
    1  0.000  0.157  0.000  0.157
    2  0.000  0.157  0.000  0.157
    3  0.000  0.157  0.000  0.157
    4  0.000  0.157  0.000  0.157
tot    0.000  0.626  0.000  0.626

band    25 # energy   19.24782620 # occ.  0.00000000

ion      s      p      d    tot
    1  0.088  0.000  0.078  0.166
    2  0.411  0.000  0.010  0.420
    3  0.030  0.000  0.090  0.120
    4  0.081  0.000  0.079  0.160
tot    0.609  0.000  0.258  0.867

band    26 # energy   19.24782621 # occ.  0.00000000

ion      s      p      d    tot
    1  0.278  0.000  0.038  0.316
    2  0.045  0.000  0.087  0.132
    3  0.033  0.000  0.090  0.122
    4  0.254  0.000  0.043  0.297
tot    0.609  0.000  0.258  0.867

band    27 # energy   19.24782832 # occ.  0.00000000

ion      s      p      d    tot
    1  0.092  0.000  0.077  0.169
    2  0.001  0.000  0.096  0.098
    3  0.394  0.000  0.013  0.408
    4  0.122  0.000  0.071  0.193
tot    0.609  0.000  0.258  0.867

band    28 # energy   22.02648355 # occ.  0.00000000

ion      s      p      d    tot
    1  0.000  0.059  0.000  0.059
    2  0.000  0.171  0.000  0.171
    3  0.000  0.205  0.000  0.205
    4  0.000  0.070  0.000  0.070
tot    0.000  0.504  0.000  0.504

band    29 # energy   22.02648355 # occ.  0.00000000

ion      s      p      d    tot
    1  0.000  0.166  0.000  0.166
    2  0.000  0.211  0.000  0.211
    3  0.000  0.039  0.000  0.039
    4  0.000  0.088  0.000  0.088
tot    0.000  0.504  0.000  0.504

band    30 # energy   22.02648355 # occ.  0.00000000

ion      s      p      d    tot
    1  0.000  0.174  0.000  0.174
    2  0.000  0.090  0.000  0.090
    3  0.000  0.151  0.000  0.151
    4  0.000  0.088  0.000  0.088
tot    0.000  0.504  0.000  0.504

band    31 # energy   22.02648355 # occ.  0.00000000

ion      s      p      d    tot
    1  0.000  0.101  0.000  0.101
    2  0.000  0.073  0.000  0.073
    3  0.000  0.209  0.000  0.209
    4  0.000  0.120  0.000  0.120
tot    0.000  0.504  0.000  0.504

band    32 # energy   22.02648424 # occ.  0.00000000

ion      s      p      d    tot
    1  0.000  0.104  0.000  0.104
    2  0.000  0.099  0.000  0.099
    3  0.000  0.084  0.000  0.084
    4  0.000  0.218  0.000  0.218
tot    0.000  0.504  0.000  0.504


 k-point     2 :    0.14285714 0.00000000 0.00000000     weight = 0.01749271

band     1 # energy    1.08347836 # occ.  1.00000000

ion      s      p      d    tot
    1  0.161  0.003  0.000  0.165
    2  0.161  0.003  0.000  0.165
    3  0.161  0.003  0.000  0.165
    4  0.161  0.003  0.000  0.165
tot    0.645  0.013  0.000  0.659

band     2 # energy    3.99453148 # occ.  1.00000000

ion      s      p      d    tot
    1  0.022  0.002  0.176  0.200
    2  0.022  0.002  0.176  0.200
    3  0.022  0.002  0.176  0.200
    4  0.022  0.002  0.176  0.200
tot    0.086  0.009  0.703  0.798

band     3 # energy    4.09119288 # occ.  1.00000000

ion      s      p      d    tot
    1  0.013  0.001  0.203  0.217
    2  0.019  0.002  0.165  0.186
    3  0.019  0.002  0.165  0.186
    4  0.013  0.001  0.203  0.217
tot    0.063  0.007  0.735  0.805

band     4 # energy    4.09119290 # occ.  1.00000000

ion      s      p      d    tot
    1  0.019  0.002  0.165  0.186
    2  0.013  0.001  0.203  0.217
    3  0.013  0.001  0.203  0.217
    4  0.019  0.002  0.165  0.186
tot    0.063  0.007  0.735  0.805

band     5 # energy    4.46699838 # occ.  1.00000000

ion      s      p      d    tot
    1  0.000  0.000  0.220  0.220
    2  0.000  0.000  0.220  0.220
    3  0.000  0.000  0.220  0.220
    4  0.000  0.000  0.220  0.220
tot    0.000  0.000  0.882  0.882

band     6 # energy    4.52381142 # occ.  1.00000000

ion      s      p      d    tot
    1  0.000  0.002  0.218  0.220
    2  0.000  0.002  0.218  0.220
    3  0.000  0.002  0.218  0.220
    4  0.000  0.002  0.218  0.220
tot    0.000  0.008  0.871  0.880

band     7 # energy    4.52381143 # occ.  1.00000000

ion      s      p      d    tot
    1  0.000  0.002  0.218  0.220
    2  0.000  0.002  0.218  0.220
    3  0.000  0.002  0.218  0.220
    4  0.000  0.002  0.218  0.220
tot    0.000  0.008  0.871  0.880

band     8 # energy    6.88922203 # occ.  1.00000000

ion      s      p      d    tot
    1  0.000  0.000  0.232  0.232
    2  0.000  0.000  0.232  0.232
    3  0.000  0.000  0.232  0.232
    4  0.000  0.000  0.232  0.232
tot    0.000  0.000  0.927  0.927

band     9 # energy    7.19496565 # occ.  1.00000000

ion      s      p      d    tot
    1  0.000  0.001  0.233  0.233
    2  0.000  0.001  0.233  0.233
    3  0.000  0.001  0.233  0.233
    4  0.000  0.001  0.233  0.233
tot    0.000  0.002  0.931  0.933

band    10 # energy    7.19496566 # occ.  1.00000000

ion      s      p      d    tot
    1  0.000  0.001  0.233  0.233
    2  0.000  0.001  0.233  0.233
    3  0.000  0.001  0.233  0.233
    4  0.000  0.001  0.233  0.233
tot    0.000  0.002  0.931  0.933

band    11 # energy    8.87817244 # occ.  1.00000000

ion      s      p      d    tot
    1  0.000  0.000  0.238  0.238
    2  0.000  0.000  0.238  0.238
    3  0.000  0.000  0.238  0.238
    4  0.000  0.000  0.238  0.238
tot    0.000  0.000  0.953  0.954

band    12 # energy    9.13396361 # occ.  1.00000000

ion      s      p      d    tot
    1  0.000  0.000  0.240  0.240
    2  0.000  0.000  0.240  0.240
    3  0.000  0.000  0.240  0.240
    4  0.000  0.000  0.240  0.240
tot    0.000  0.000  0.961  0.961

band    13 # energy    9.87346183 # occ.  1.00000000

ion      s      p      d    tot
    1  0.000  0.038  0.180  0.219
    2  0.000  0.038  0.180  0.219
    3  0.000  0.038  0.180  0.219
    4  0.000  0.038  0.180  0.219
tot    0.000  0.153  0.722  0.875

band    14 # energy    9.87346186 # occ.  1.00000000

ion      s      p      d    tot
    1  0.000  0.038  0.180  0.219
    2  0.000  0.038  0.180  0.219
    3  0.000  0.038  0.180  0.219
    4  0.000  0.038  0.180  0.219
tot    0.000  0.153  0.722  0.875

band    15 # energy   10.33611724 # occ.  1.00000000

ion      s      p      d    tot
    1  0.001  0.003  0.358  0.361
    2  0.000  0.000  0.120  0.120
    3  0.000  0.000  0.120  0.120
    4  0.001  0.003  0.358  0.361
tot    0.001  0.006  0.956  0.963

band    16 # energy   10.33611731 # occ.  1.00000000

ion      s      p      d    tot
    1  0.000  0.000  0.120  0.120
    2  0.001  0.003  0.358  0.361
    3  0.001  0.003  0.358  0.361
    4  0.000  0.000  0.120  0.120
tot    0.001  0.006  0.956  0.963

band    17 # energy   10.53062006 # occ.  1.00000000

ion      s      p      d    tot
    1  0.000  0.000  0.244  0.244
    2  0.000  0.000  0.244  0.244
    3  0.000  0.000  0.244  0.244
    4  0.000  0.000  0.244  0.244
tot    0.000  0.000  0.974  0.974

band    18 # energy   10.79815963 # occ. -0.00684551

ion      s      p      d    tot
    1  0.000  0.002  0.240  0.242
    2  0.000  0.002  0.240  0.242
    3  0.000  0.002  0.240  0.242
    4  0.000  0.002  0.240  0.242
tot    0.000  0.008  0.958  0.966

band    19 # energy   10.79815964 # occ. -0.00684554

ion      s      p      d    tot
    1  0.000  0.002  0.240  0.242
    2  0.000  0.002  0.240  0.242
    3  0.000  0.002  0.240  0.242
    4  0.000  0.002  0.240  0.242
tot    0.000  0.008  0.958  0.966

band    20 # energy   11.13056021 # occ. -0.00000000

ion      s      p      d    tot
    1  0.000  0.000  0.213  0.213
    2  0.000  0.000  0.276  0.276
    3  0.000  0.000  0.276  0.276
    4  0.000  0.000  0.213  0.213
tot    0.000  0.000  0.978  0.978

band    21 # energy   11.13056021 # occ. -0.00000000

ion      s      p      d    tot
    1  0.000  0.000  0.276  0.276
    2  0.000  0.000  0.213  0.213
    3  0.000  0.000  0.213  0.213
    4  0.000  0.000  0.276  0.276
tot    0.000  0.000  0.978  0.978

band    22 # energy   11.30920362 # occ. -0.00000000

ion      s      p      d    tot
    1  0.032  0.116  0.021  0.169
    2  0.032  0.116  0.021  0.169
    3  0.032  0.116  0.021  0.169
    4  0.032  0.116  0.021  0.169
tot    0.128  0.465  0.084  0.677

band    23 # energy   13.96860297 # occ.  0.00000000

ion      s      p      d    tot
    1  0.000  0.117  0.065  0.182
    2  0.000  0.117  0.065  0.182
    3  0.000  0.117  0.065  0.182
    4  0.000  0.117  0.065  0.182
tot    0.000  0.468  0.261  0.729

band    24 # energy   13.96860298 # occ.  0.00000000

ion      s      p      d    tot
    1  0.000  0.117  0.065  0.182
    2  0.000  0.117  0.065  0.182
    3  0.000  0.117  0.065  0.182
    4  0.000  0.117  0.065  0.182
tot    0.000  0.468  0.261  0.729

band    25 # energy   18.77795028 # occ.  0.00000000

ion      s      p      d    tot
    1  0.272  0.011  0.039  0.322
    2  0.032  0.001  0.051  0.085
    3  0.032  0.001  0.051  0.085
    4  0.272  0.011  0.039  0.322
tot    0.608  0.026  0.181  0.814

band    26 # energy   18.77795029 # occ.  0.00000000

ion      s      p      d    tot
    1  0.032  0.001  0.051  0.085
    2  0.272  0.011  0.039  0.322
    3  0.272  0.011  0.039  0.322
    4  0.032  0.001  0.051  0.085
tot    0.608  0.026  0.181  0.814

band    27 # energy   20.92308034 # occ.  0.00000000

ion      s      p      d    tot
    1  0.115  0.035  0.053  0.203
    2  0.115  0.035  0.053  0.203
    3  0.115  0.035  0.053  0.203
    4  0.115  0.035  0.053  0.203
tot    0.461  0.141  0.212  0.814

band    28 # energy   21.78441549 # occ.  0.00000000

ion      s      p      d    tot
    1  0.000  0.126  0.007  0.133
    2  0.000  0.126  0.007  0.133
    3  0.000  0.126  0.007  0.133
    4  0.000  0.126  0.007  0.133
tot    0.000  0.505  0.029  0.534

band    29 # energy   21.78442991 # occ.  0.00000000

ion      s      p      d    tot
    1  0.000  0.127  0.007  0.134
    2  0.000  0.127  0.007  0.134
    3  0.000  0.126  0.007  0.133
    4  0.000  0.126  0.007  0.133
tot    0.000  0.505  0.029  0.534

band    30 # energy   22.23428251 # occ.  0.00000000

ion      s      p      d    tot
    1  0.002  0.096  0.039  0.137
    2  0.003  0.113  0.033  0.149
    3  0.003  0.113  0.033  0.149
    4  0.002  0.096  0.039  0.137
tot    0.009  0.417  0.144  0.571

band    31 # energy   22.23434580 # occ.  0.00000000

ion      s      p      d    tot
    1  0.003  0.113  0.033  0.148
    2  0.002  0.096  0.039  0.137
    3  0.002  0.096  0.039  0.137
    4  0.003  0.113  0.033  0.149
tot    0.009  0.417  0.144  0.571

band    32 # energy   22.64654870 # occ.  0.00000000

ion      s      p      d    tot
    1  0.000  0.123  0.007  0.130
    2  0.000  0.123  0.007  0.130
    3  0.000  0.123  0.007  0.130
    4  0.000  0.123  0.007  0.130
tot    0.000  0.490  0.029  0.520


 k-point     3 :    0.28571429 0.00000000 0.00000000     weight = 0.01749271

band     1 # energy    1.84648157 # occ.  1.00000000

ion      s      p      d    tot
    1  0.151  0.012  0.002  0.165
    2  0.151  0.012  0.002  0.165
    3  0.151  0.012  0.002  0.165
    4  0.151  0.012  0.002  0.165
tot    0.604  0.049  0.008  0.661

band     2 # energy    4.16202623 # occ.  1.00000000

ion      s      p      d    tot
    1  0.039  0.010  0.144  0.193
    2  0.039  0.010  0.144  0.193
    3  0.039  0.010  0.144  0.193
    4  0.039  0.010  0.144  0.193
tot    0.156  0.041  0.576  0.773

band     3 # energy    4.60383905 # occ.  1.00000000

ion      s      p      d    tot
    1  0.001  0.001  0.297  0.299
    2  0.019  0.012  0.074  0.104
    3  0.019  0.012  0.074  0.104
    4  0.001  0.001  0.297  0.299
tot    0.040  0.026  0.742  0.807

band     4 # energy    4.60383910 # occ.  1.00000000

ion      s      p      d    tot
    1  0.019  0.012  0.074  0.104
    2  0.001  0.001  0.297  0.299
    3  0.001  0.001  0.297  0.299
    4  0.019  0.012  0.074  0.104
tot    0.040  0.026  0.742  0.807

band     5 # energy    4.78026326 # occ.  1.00000000

ion      s      p      d    tot
    1  0.000  0.000  0.221  0.221
    2  0.000  0.000  0.221  0.221
    3  0.000  0.000  0.221  0.221
    4  0.000  0.000  0.221  0.221
tot    0.000  0.000  0.884  0.884

band     6 # energy    5.01490540 # occ.  1.00000000

ion      s      p      d    tot
    1  0.000  0.008  0.211  0.219
    2  0.000  0.008  0.211  0.219
    3  0.000  0.008  0.211  0.219
    4  0.000  0.008  0.211  0.219
tot    0.000  0.032  0.843  0.874

band     7 # energy    5.01490542 # occ.  1.00000000

ion      s      p      d    tot
    1  0.000  0.008  0.211  0.219
    2  0.000  0.008  0.211  0.219
    3  0.000  0.008  0.211  0.219
    4  0.000  0.008  0.211  0.219
tot    0.000  0.032  0.843  0.874

band     8 # energy    6.44029502 # occ.  1.00000000

ion      s      p      d    tot
    1  0.000  0.000  0.228  0.228
    2  0.000  0.000  0.228  0.228
    3  0.000  0.000  0.228  0.228
    4  0.000  0.000  0.228  0.228
tot    0.000  0.000  0.913  0.913

band     9 # energy    7.59566819 # occ.  1.00000000

ion      s      p      d    tot
    1  0.000  0.002  0.231  0.233
    2  0.000  0.002  0.231  0.233
    3  0.000  0.002  0.231  0.233
    4  0.000  0.002  0.231  0.233
tot    0.000  0.009  0.922  0.931

band    10 # energy    7.59566822 # occ.  1.00000000

ion      s      p      d    tot
    1  0.000  0.002  0.231  0.233
    2  0.000  0.002  0.231  0.233
    3  0.000  0.002  0.231  0.233
    4  0.000  0.002  0.231  0.233
tot    0.000  0.009  0.922  0.931

band    11 # energy    8.29645348 # occ.  1.00000000

ion      s      p      d    tot
    1  0.000  0.037  0.178  0.215
    2  0.000  0.037  0.178  0.215
    3  0.000  0.037  0.178  0.215
    4  0.000  0.037  0.178  0.215
tot    0.000  0.146  0.712  0.858

band    12 # energy    8.29645351 # occ.  1.00000000

ion      s      p      d    tot
    1  0.000  0.037  0.178  0.215
    2  0.000  0.037  0.178  0.215
    3  0.000  0.037  0.178  0.215
    4  0.000  0.037  0.178  0.215
tot    0.000  0.146  0.712  0.858

band    13 # energy    8.39546601 # occ.  1.00000000

ion      s      p      d    tot
    1  0.001  0.001  0.231  0.233
    2  0.001  0.001  0.231  0.233
    3  0.001  0.001  0.231  0.233
    4  0.001  0.001  0.231  0.233
tot    0.005  0.002  0.925  0.932

band    14 # energy    9.25525161 # occ.  1.00000000

ion      s      p      d    tot
    1  0.053  0.068  0.066  0.186
    2  0.053  0.068  0.066  0.186
    3  0.053  0.068  0.066  0.186
    4  0.053  0.068  0.066  0.186
tot    0.210  0.270  0.263  0.743

band    15 # energy    9.33056521 # occ.  1.00000000

ion      s      p      d    tot
    1  0.000  0.000  0.240  0.240
    2  0.000  0.000  0.240  0.240
    3  0.000  0.000  0.240  0.240
    4  0.000  0.000  0.240  0.240
tot    0.000  0.000  0.962  0.962

band    16 # energy    9.60476585 # occ.  1.00000000

ion      s      p      d    tot
    1  0.000  0.000  0.075  0.075
    2  0.009  0.006  0.376  0.390
    3  0.009  0.006  0.376  0.390
    4  0.000  0.000  0.075  0.075
tot    0.017  0.011  0.903  0.931

band    17 # energy    9.60476588 # occ.  1.00000000

ion      s      p      d    tot
    1  0.009  0.006  0.376  0.390
    2  0.000  0.000  0.075  0.075
    3  0.000  0.000  0.075  0.075
    4  0.009  0.006  0.376  0.390
tot    0.017  0.011  0.903  0.931

band    18 # energy   10.00318935 # occ.  1.00000000

ion      s      p      d    tot
    1  0.000  0.005  0.232  0.237
    2  0.000  0.005  0.232  0.237
    3  0.000  0.005  0.232  0.237
    4  0.000  0.005  0.232  0.237
tot    0.000  0.020  0.927  0.946

band    19 # energy   10.00318935 # occ.  1.00000000

ion      s      p      d    tot
    1  0.000  0.005  0.232  0.237
    2  0.000  0.005  0.232  0.237
    3  0.000  0.005  0.232  0.237
    4  0.000  0.005  0.232  0.237
tot    0.000  0.020  0.927  0.946

band    20 # energy   10.29475800 # occ.  1.00000000

ion      s      p      d    tot
    1  0.000  0.000  0.243  0.243
    2  0.000  0.000  0.243  0.243
    3  0.000  0.000  0.243  0.243
    4  0.000  0.000  0.243  0.243
tot    0.000  0.000  0.970  0.970

band    21 # energy   11.13181557 # occ. -0.00000000

ion      s      p      d    tot
    1  0.000  0.000  0.216  0.216
    2  0.000  0.000  0.274  0.274
    3  0.000  0.000  0.274  0.274
    4  0.000  0.000  0.216  0.216
tot    0.000  0.000  0.978  0.978

band    22 # energy   11.13181557 # occ. -0.00000000

ion      s      p      d    tot
    1  0.000  0.000  0.274  0.274
    2  0.000  0.000  0.216  0.216
    3  0.000  0.000  0.216  0.216
    4  0.000  0.000  0.274  0.274
tot    0.000  0.000  0.978  0.978

band    23 # energy   15.96130008 # occ.  0.00000000

ion      s      p      d    tot
    1  0.000  0.115  0.070  0.185
    2  0.000  0.115  0.070  0.185
    3  0.000  0.115  0.070  0.185
    4  0.000  0.115  0.070  0.185
tot    0.000  0.460  0.281  0.741

band    24 # energy   15.96130010 # occ.  0.00000000

ion      s      p      d    tot
    1  0.000  0.115  0.070  0.185
    2  0.000  0.115  0.070  0.185
    3  0.000  0.115  0.070  0.185
    4  0.000  0.115  0.070  0.185
tot    0.000  0.460  0.281  0.741

band    25 # energy   18.05836976 # occ.  0.00000000

ion      s      p      d    tot
    1  0.150  0.005  0.032  0.188
    2  0.163  0.005  0.034  0.202
    3  0.163  0.005  0.034  0.202
    4  0.150  0.005  0.032  0.188
tot    0.627  0.020  0.132  0.779

band    26 # energy   18.05836976 # occ.  0.00000000

ion      s      p      d    tot
    1  0.163  0.005  0.034  0.202
    2  0.150  0.005  0.032  0.188
    3  0.150  0.005  0.032  0.188
    4  0.163  0.005  0.034  0.202
tot    0.627  0.020  0.132  0.779

band    27 # energy   21.01273833 # occ.  0.00000000

ion      s      p      d    tot
    1  0.000  0.126  0.025  0.151
    2  0.000  0.126  0.025  0.151
    3  0.000  0.126  0.025  0.151
    4  0.000  0.126  0.025  0.151
tot    0.000  0.504  0.102  0.606

band    28 # energy   21.01273833 # occ.  0.00000000

ion      s      p      d    tot
    1  0.000  0.126  0.025  0.151
    2  0.000  0.126  0.025  0.151
    3  0.000  0.126  0.025  0.151
    4  0.000  0.126  0.025  0.151
tot    0.000  0.504  0.102  0.606

band    29 # energy   22.44125435 # occ.  0.00000000

ion      s      p      d    tot
    1  0.001  0.040  0.114  0.155
    2  0.002  0.117  0.040  0.160
    3  0.002  0.117  0.040  0.160
    4  0.001  0.040  0.114  0.155
tot    0.006  0.316  0.308  0.630

band    30 # energy   22.44125522 # occ.  0.00000000

ion      s      p      d    tot
    1  0.002  0.117  0.040  0.160
    2  0.001  0.040  0.114  0.155
    3  0.001  0.040  0.114  0.155
    4  0.002  0.117  0.040  0.160
tot    0.006  0.316  0.308  0.630

band    31 # energy   24.27830136 # occ.  0.00000000

ion      s      p      d    tot
    1  0.000  0.116  0.021  0.137
    2  0.000  0.115  0.021  0.137
    3  0.000  0.116  0.021  0.137
    4  0.000  0.115  0.021  0.137
tot    0.000  0.462  0.086  0.548

band    32 # energy   24.28294088 # occ.  0.00000000

ion      s      p      d    tot
    1  0.016  0.104  0.028  0.148
    2  0.016  0.104  0.028  0.148
    3  0.016  0.104  0.028  0.148
    4  0.016  0.104  0.028  0.148
tot    0.064  0.416  0.110  0.590


 k-point     4 :    0.42857143 0.00000000 0.00000000     weight = 0.01749271

band     1 # energy    2.95300819 # occ.  1.00000000

ion      s      p      d    tot
    1  0.129  0.024  0.015  0.167
    2  0.129  0.024  0.015  0.167
    3  0.129  0.024  0.015  0.167
    4  0.129  0.024  0.015  0.167
tot    0.517  0.095  0.058  0.670

band     2 # energy    3.93024541 # occ.  1.00000000

ion      s      p      d    tot
    1  0.085  0.024  0.069  0.178
    2  0.085  0.024  0.069  0.178
    3  0.085  0.024  0.069  0.178
    4  0.085  0.024  0.069  0.178
tot    0.338  0.097  0.277  0.712

band     3 # energy    5.15688262 # occ.  1.00000000

ion      s      p      d    tot
    1  0.002  0.016  0.134  0.153
    2  0.001  0.009  0.243  0.253
    3  0.001  0.009  0.243  0.253
    4  0.002  0.016  0.134  0.153
tot    0.007  0.050  0.754  0.811

band     4 # energy    5.15688264 # occ.  1.00000000

ion      s      p      d    tot
    1  0.001  0.009  0.243  0.253
    2  0.002  0.016  0.134  0.153
    3  0.002  0.016  0.134  0.153
    4  0.001  0.009  0.243  0.253
tot    0.007  0.050  0.754  0.811

band     5 # energy    5.26376922 # occ.  1.00000000

ion      s      p      d    tot
    1  0.000  0.000  0.222  0.222
    2  0.000  0.000  0.222  0.222
    3  0.000  0.000  0.222  0.222
    4  0.000  0.000  0.222  0.222
tot    0.000  0.000  0.888  0.888

band     6 # energy    5.82161370 # occ.  1.00000000

ion      s      p      d    tot
    1  0.000  0.017  0.200  0.217
    2  0.000  0.017  0.200  0.217
    3  0.000  0.017  0.200  0.217
    4  0.000  0.017  0.200  0.217
tot    0.000  0.067  0.800  0.867

band     7 # energy    5.82161374 # occ.  1.00000000

ion      s      p      d    tot
    1  0.000  0.017  0.200  0.217
    2  0.000  0.017  0.200  0.217
    3  0.000  0.017  0.200  0.217
    4  0.000  0.017  0.200  0.217
tot    0.000  0.067  0.800  0.867

band     8 # energy    5.85178390 # occ.  1.00000000

ion      s      p      d    tot
    1  0.000  0.000  0.225  0.225
    2  0.000  0.000  0.225  0.225
    3  0.000  0.000  0.225  0.225
    4  0.000  0.000  0.225  0.225
tot    0.000  0.000  0.898  0.898

band     9 # energy    6.92538469 # occ.  1.00000000

ion      s      p      d    tot
    1  0.000  0.027  0.188  0.215
    2  0.000  0.027  0.188  0.215
    3  0.000  0.027  0.188  0.215
    4  0.000  0.027  0.188  0.215
tot    0.000  0.109  0.752  0.861

band    10 # energy    6.92538471 # occ.  1.00000000

ion      s      p      d    tot
    1  0.000  0.027  0.188  0.215
    2  0.000  0.027  0.188  0.215
    3  0.000  0.027  0.188  0.215
    4  0.000  0.027  0.188  0.215
tot    0.000  0.109  0.752  0.861

band    11 # energy    7.88332641 # occ.  1.00000000

ion      s      p      d    tot
    1  0.009  0.005  0.211  0.225
    2  0.009  0.005  0.211  0.225
    3  0.009  0.005  0.211  0.225
    4  0.009  0.005  0.211  0.225
tot    0.034  0.018  0.846  0.898

band    12 # energy    7.94355491 # occ.  1.00000000

ion      s      p      d    tot
    1  0.033  0.025  0.149  0.208
    2  0.033  0.025  0.149  0.208
    3  0.033  0.025  0.149  0.208
    4  0.033  0.025  0.149  0.208
tot    0.134  0.100  0.597  0.831

band    13 # energy    8.24010098 # occ.  1.00000000

ion      s      p      d    tot
    1  0.000  0.004  0.228  0.233
    2  0.000  0.004  0.228  0.233
    3  0.000  0.004  0.228  0.233
    4  0.000  0.004  0.228  0.233
tot    0.000  0.017  0.913  0.930

band    14 # energy    8.24010099 # occ.  1.00000000

ion      s      p      d    tot
    1  0.000  0.004  0.228  0.233
    2  0.000  0.004  0.228  0.233
    3  0.000  0.004  0.228  0.233
    4  0.000  0.004  0.228  0.233
tot    0.000  0.017  0.913  0.930

band    15 # energy    8.86075478 # occ.  1.00000000

ion      s      p      d    tot
    1  0.012  0.001  0.214  0.227
    2  0.012  0.001  0.213  0.226
    3  0.012  0.001  0.213  0.226
    4  0.012  0.001  0.214  0.227
tot    0.049  0.003  0.853  0.905

band    16 # energy    8.86075479 # occ.  1.00000000

ion      s      p      d    tot
    1  0.012  0.001  0.213  0.226
    2  0.012  0.001  0.214  0.227
    3  0.012  0.001  0.214  0.227
    4  0.012  0.001  0.213  0.226
tot    0.049  0.003  0.853  0.905

band    17 # energy    9.07831021 # occ.  1.00000000

ion      s      p      d    tot
    1  0.000  0.006  0.228  0.233
    2  0.000  0.006  0.228  0.233
    3  0.000  0.006  0.228  0.233
    4  0.000  0.006  0.228  0.233
tot    0.000  0.022  0.912  0.934

band    18 # energy    9.07831022 # occ.  1.00000000

ion      s      p      d    tot
    1  0.000  0.006  0.228  0.233
    2  0.000  0.006  0.228  0.233
    3  0.000  0.006  0.228  0.233
    4  0.000  0.006  0.228  0.233
tot    0.000  0.022  0.912  0.934

band    19 # energy    9.62540271 # occ.  1.00000000

ion      s      p      d    tot
    1  0.000  0.000  0.241  0.241
    2  0.000  0.000  0.241  0.241
    3  0.000  0.000  0.241  0.241
    4  0.000  0.000  0.241  0.241
tot    0.000  0.000  0.963  0.963
