<?xml version="1.0" encoding="ISO-8859-1"?>
<modeling>
 <generator>
  <i name="program" type="string">vasp </i>
  <i name="version" type="string">5.4.4.18Apr17-6-g9f103f2a35  </i>
  <i name="subversion" type="string">(build May  3 2023 23:59:56) complex            parallel </i>
  <i name="platform" type="string">IFC91_ompi </i>
  <i name="date" type="string">2023 06 11 </i>
  <i name="time" type="string">15:47:58 </i>
 </generator>
 <incar>
  <i type="string" name="SYSTEM">      Slab</i>
  <i type="int" name="ISTART">     0</i>
  <i type="string" name="PREC">high</i>
  <i type="string" name="ALGO">      N</i>
  <i type="int" name="ISPIN">     2</i>
  <i type="int" name="ICHARG">    11</i>
  <i type="int" name="NELM">   100</i>
  <i type="int" name="NELMIN">     4</i>
  <i type="int" name="IBRION">    -1</i>
  <i name="EDIFF">      0.00010000</i>
  <i name="EDIFFG">     -0.05000000</i>
  <i type="int" name="NSW">     0</i>
  <i name="ENCUT">    400.00000000</i>
  <v name="RWIGS">      1.45500000</v>
  <i type="logical" name="LREAL"> F  </i>
  <i type="int" name="ISMEAR">     1</i>
  <i name="SIGMA">      0.05000000</i>
  <i type="int" name="NWRITE">     2</i>
  <i type="logical" name="LWAVE"> T  </i>
  <v type="int" name="KPOINT_BSE">    -1     0     0     0</v>
  <i type="int" name="NELM">   100</i>
 </incar>
 <structure name="primitive_cell" >
  <crystal>
   <varray name="basis" >
    <v>       1.97943211       1.97943211      -0.00000000 </v>
    <v>       1.97943211      -0.00000000      -1.97943211 </v>
    <v>       0.00000000       1.97943211      -1.97943211 </v>
   </varray>
   <i name="volume">     15.51142980 </i>
   <varray name="rec_basis" >
    <v>       0.25259770       0.25259770       0.25259770 </v>
    <v>       0.25259770      -0.25259770      -0.25259770 </v>
    <v>      -0.25259770       0.25259770      -0.25259770 </v>
   </varray>
  </crystal>
  <varray name="positions" >
   <v>       0.00000000       0.00000000       0.00000000 </v>
  </varray>
 </structure>
 <varray name="primitive_index" >
  <v type="int" >        1 </v>
 </varray>
 <kpoints>
  <generation param="Monkhorst-Pack">
   <v type="int" name="divisions">       7        7        7 </v>
   <v name="usershift">      0.00000000       0.00000000       0.00000000 </v>
   <v name="genvec1">      0.14285714       0.00000000       0.00000000 </v>
   <v name="genvec2">      0.00000000       0.14285714       0.00000000 </v>
   <v name="genvec3">      0.00000000       0.00000000       0.14285714 </v>
   <v name="shift">      0.00000000       0.00000000       0.00000000 </v>
  </generation>
  <varray name="kpointlist" >
   <v>       0.00000000       0.00000000       0.00000000 </v>
   <v>       0.14285714       0.00000000       0.00000000 </v>
   <v>       0.28571429       0.00000000       0.00000000 </v>
   <v>       0.42857143       0.00000000       0.00000000 </v>
   <v>       0.14285714       0.14285714       0.00000000 </v>
   <v>       0.28571429       0.14285714       0.00000000 </v>
   <v>       0.42857143       0.14285714       0.00000000 </v>
   <v>       0.28571429       0.28571429       0.00000000 </v>
   <v>       0.42857143       0.28571429       0.00000000 </v>
   <v>       0.42857143       0.42857143       0.00000000 </v>
   <v>       0.14285714       0.14285714       0.14285714 </v>
   <v>       0.28571429       0.14285714       0.14285714 </v>
   <v>       0.42857143       0.14285714       0.14285714 </v>
   <v>       0.28571429       0.28571429       0.14285714 </v>
   <v>       0.42857143       0.28571429       0.14285714 </v>
   <v>       0.42857143       0.42857143       0.14285714 </v>
   <v>       0.28571429       0.28571429       0.28571429 </v>
   <v>       0.42857143       0.28571429       0.28571429 </v>
   <v>       0.42857143       0.42857143       0.28571429 </v>
   <v>       0.42857143       0.42857143       0.42857143 </v>
  </varray>
  <varray name="weights" >
   <v>       0.00291545 </v>
   <v>       0.01749271 </v>
   <v>       0.01749271 </v>
   <v>       0.01749271 </v>
   <v>       0.03498542 </v>
   <v>       0.06997085 </v>
   <v>       0.06997085 </v>
   <v>       0.03498542 </v>
   <v>       0.06997085 </v>
   <v>       0.03498542 </v>
   <v>       0.02332362 </v>
   <v>       0.06997085 </v>
   <v>       0.06997085 </v>
   <v>       0.06997085 </v>
   <v>       0.13994169 </v>
   <v>       0.06997085 </v>
   <v>       0.02332362 </v>
   <v>       0.06997085 </v>
   <v>       0.06997085 </v>
   <v>       0.02332362 </v>
  </varray>
 </kpoints>
 <parameters>
  <separator name="general" >
   <i type="string" name="SYSTEM">Slab</i>
   <i type="logical" name="LCOMPAT"> F  </i>
  </separator>
  <separator name="electronic" >
   <i type="string" name="PREC">high</i>
   <i name="ENMAX">    400.00000000</i>
   <i name="ENAUG">    358.96600000</i>
   <i name="EDIFF">      0.00010000</i>
   <i type="int" name="IALGO">    38</i>
   <i type="int" name="IWAVPR">    10</i>
   <i type="int" name="NBANDS">    32</i>
   <i name="NELECT">     40.00000000</i>
   <i type="int" name="TURBO">     0</i>
   <i type="int" name="IRESTART">     0</i>
   <i type="int" name="NREBOOT">     0</i>
   <i type="int" name="NMIN">     0</i>
   <i name="EREF">      0.00000000</i>
   <separator name="electronic smearing" >
    <i type="int" name="ISMEAR">     1</i>
    <i name="SIGMA">      0.05000000</i>
    <i name="KSPACING">      0.50000000</i>
    <i type="logical" name="KGAMMA"> T  </i>
   </separator>
   <separator name="electronic projectors" >
    <i type="logical" name="LREAL"> F  </i>
    <v name="ROPT">      0.00000000</v>
    <i type="int" name="LMAXPAW">  -100</i>
    <i type="int" name="LMAXMIX">     2</i>
    <i type="logical" name="NLSPLINE"> F  </i>
   </separator>
   <separator name="electronic startup" >
    <i type="int" name="ISTART">     0</i>
    <i type="int" name="ICHARG">    11</i>
    <i type="int" name="INIWAV">     1</i>
   </separator>
   <separator name="electronic spin" >
    <i type="int" name="ISPIN">     2</i>
    <i type="logical" name="LNONCOLLINEAR"> F  </i>
    <v name="MAGMOM">      1.00000000      1.00000000      1.00000000      1.00000000</v>
    <i name="NUPDOWN">     -1.00000000</i>
    <i type="logical" name="LSORBIT"> F  </i>
    <v name="SAXIS">      0.00000000      0.00000000      1.00000000</v>
    <i type="logical" name="LSPIRAL"> F  </i>
    <v name="QSPIRAL">      0.00000000      0.00000000      0.00000000</v>
    <i type="logical" name="LZEROZ"> F  </i>
   </separator>
   <separator name="electronic exchange-correlation" >
    <i type="logical" name="LASPH"> F  </i>
    <i type="logical" name="LMETAGGA"> F  </i>
   </separator>
   <separator name="electronic convergence" >
    <i type="int" name="NELM">   100</i>
    <i type="int" name="NELMDL">    -5</i>
    <i type="int" name="NELMIN">     4</i>
    <i name="ENINI">    400.00000000</i>
    <separator name="electronic convergence detail" >
     <i type="logical" name="LDIAG"> T  </i>
     <i type="logical" name="LSUBROT"> F  </i>
     <i name="WEIMIN">      0.00000000</i>
     <i name="EBREAK">      0.00000078</i>
     <i name="DEPER">      0.30000000</i>
     <i type="int" name="NRMM">     4</i>
     <i name="TIME">      0.40000000</i>
    </separator>
   </separator>
   <separator name="electronic mixer" >
    <i name="AMIX">      0.40000000</i>
    <i name="BMIX">      1.00000000</i>
    <i name="AMIN">      0.10000000</i>
    <i name="AMIX_MAG">      1.60000000</i>
    <i name="BMIX_MAG">      1.00000000</i>
    <separator name="electronic mixer details" >
     <i type="int" name="IMIX">     4</i>
     <i type="logical" name="MIXFIRST"> F  </i>
     <i type="int" name="MAXMIX">   -45</i>
     <i name="WC">    100.00000000</i>
     <i type="int" name="INIMIX">     1</i>
     <i type="int" name="MIXPRE">     1</i>
     <i type="int" name="MREMOVE">     5</i>
    </separator>
   </separator>
   <separator name="electronic dipolcorrection" >
    <i type="logical" name="LDIPOL"> F  </i>
    <i type="logical" name="LMONO"> F  </i>
    <i type="int" name="IDIPOL">     0</i>
    <i name="EPSILON">      1.00000000</i>
    <v name="DIPOL">   -100.00000000   -100.00000000   -100.00000000</v>
    <i name="EFIELD">      0.00000000</i>
   </separator>
  </separator>
  <separator name="grids" >
   <i type="int" name="NGX">    28</i>
   <i type="int" name="NGY">    28</i>
   <i type="int" name="NGZ">    28</i>
   <i type="int" name="NGXF">    32</i>
   <i type="int" name="NGYF">    32</i>
   <i type="int" name="NGZF">    32</i>
   <i type="logical" name="ADDGRID"> F  </i>
  </separator>
  <separator name="ionic" >
   <i type="int" name="NSW">     0</i>
   <i type="int" name="IBRION">    -1</i>
   <i type="int" name="MDALGO">     0</i>
   <i type="int" name="ISIF">     2</i>
   <i name="PSTRESS">      0.00000000</i>
   <i name="EDIFFG">     -0.05000000</i>
   <i type="int" name="NFREE">     0</i>
   <i name="POTIM">      0.50000000</i>
   <i name="SMASS">     -3.00000000</i>
   <i name="SCALEE">      1.00000000</i>
  </separator>
  <separator name="ionic md" >
   <i name="TEBEG">      0.00010000</i>
   <i name="TEEND">      0.00010000</i>
   <i type="int" name="NBLOCK">     1</i>
   <i type="int" name="KBLOCK">     1</i>
   <i type="int" name="NPACO">   256</i>
   <i name="APACO">     16.00000000</i>
  </separator>
  <separator name="symmetry" >
   <i type="int" name="ISYM">     2</i>
   <i name="SYMPREC">      0.00001000</i>
  </separator>
  <separator name="dos" >
   <i type="int" name="LORBIT">     0</i>
   <v name="RWIGS">      1.45500000</v>
   <i type="int" name="NEDOS">   301</i>
   <i name="EMIN">     10.00000000</i>
   <i name="EMAX">    -10.00000000</i>
   <i name="EFERMI">      0.00000000</i>
  </separator>
  <separator name="writing" >
   <i type="int" name="NWRITE">     2</i>
   <i type="logical" name="LWAVE"> T  </i>
   <i type="logical" name="LDOWNSAMPLE"> F  </i>
   <i type="logical" name="LCHARG"> T  </i>
   <i type="logical" name="LPARD"> F  </i>
   <i type="logical" name="LVTOT"> F  </i>
   <i type="logical" name="LVHAR"> F  </i>
   <i type="logical" name="LELF"> F  </i>
   <i type="logical" name="LOPTICS"> F  </i>
   <v name="STM">      0.00000000      0.00000000      0.00000000      0.00000000      0.00000000      0.00000000      0.00000000</v>
  </separator>
  <separator name="performance" >
   <i type="int" name="NPAR">     8</i>
   <i type="int" name="NSIM">     4</i>
   <i type="int" name="NBLK">    -1</i>
   <i type="logical" name="LPLANE"> T  </i>
   <i type="logical" name="LSCALAPACK"> T  </i>
   <i type="logical" name="LSCAAWARE"> F  </i>
   <i type="logical" name="LSCALU"> F  </i>
   <i type="logical" name="LASYNC"> F  </i>
   <i type="logical" name="LORBITALREAL"> F  </i>
  </separator>
  <separator name="miscellaneous" >
   <i type="int" name="IDIOT">     3</i>
   <i type="int" name="ISPECIAL">     0</i>
   <i type="logical" name="LMUSIC"> F  </i>
   <v name="POMASS">    195.08000000</v>
   <v name="DARWINR">      0.00000000</v>
   <v name="DARWINV">      1.00000000</v>
   <i type="logical" name="LCORR"> T  </i>
  </separator>
  <i type="logical" name="GGA_COMPAT"> T  </i>
  <i type="logical" name="LBERRY"> F  </i>
  <i type="int" name="ICORELEVEL">     0</i>
  <i type="logical" name="LDAU"> F  </i>
  <i type="int" name="I_CONSTRAINED_M">     0</i>
  <separator name="electronic exchange-correlation" >
   <i type="string" name="GGA">--</i>
   <i type="int" name="VOSKOWN">     0</i>
   <i type="logical" name="LHFCALC"> F  </i>
   <i type="string" name="PRECFOCK"></i>
   <i type="logical" name="LSYMGRAD"> F  </i>
   <i type="logical" name="LHFONE"> F  </i>
   <i type="logical" name="LRHFCALC"> F  </i>
   <i type="logical" name="LTHOMAS"> F  </i>
   <i type="logical" name="LMODELHF"> F  </i>
   <i name="ENCUT4O">     -1.00000000</i>
   <i type="int" name="EXXOEP">     0</i>
   <i type="int" name="FOURORBIT">     0</i>
   <i name="AEXX">      0.00000000</i>
   <i name="HFALPHA">      0.00000000</i>
   <i name="MCALPHA">      0.00000000</i>
   <i name="ALDAX">      1.00000000</i>
   <i name="AGGAX">      1.00000000</i>
   <i name="ALDAC">      1.00000000</i>
   <i name="AGGAC">      1.00000000</i>
   <i type="int" name="NKREDX">     1</i>
   <i type="int" name="NKREDY">     1</i>
   <i type="int" name="NKREDZ">     1</i>
   <i type="logical" name="SHIFTRED"> F  </i>
   <i type="logical" name="ODDONLY"> F  </i>
   <i type="logical" name="EVENONLY"> F  </i>
   <i type="int" name="LMAXFOCK">     0</i>
   <i type="int" name="NMAXFOCKAE">     0</i>
   <i type="logical" name="LFOCKAEDFT"> F  </i>
   <i name="HFSCREEN">      0.00000000</i>
   <i name="HFSCREENC">      0.00000000</i>
   <i type="int" name="NBANDSGWLOW">     0</i>
  </separator>
  <separator name="vdW DFT" >
   <i type="logical" name="LUSE_VDW"> F  </i>
   <i name="Zab_VDW">     -0.84910000</i>
   <i name="PARAM1">      0.12340000</i>
   <i name="PARAM2">      1.00000000</i>
   <i name="PARAM3">      0.00000000</i>
  </separator>
  <separator name="model GW" >
   <i type="int" name="MODEL_GW">     0</i>
   <i name="MODEL_EPS0">      9.30685788</i>
   <i name="MODEL_ALPHA">      1.00000000</i>
  </separator>
  <separator name="linear response parameters" >
   <i type="logical" name="LEPSILON"> F  </i>
   <i type="logical" name="LRPA"> F  </i>
   <i type="logical" name="LNABLA"> F  </i>
   <i type="logical" name="LVEL"> F  </i>
   <i type="int" name="KINTER">     0</i>
   <i name="CSHIFT">      0.10000000</i>
   <i name="OMEGAMAX">     -1.00000000</i>
   <i name="DEG_THRESHOLD">      0.00200000</i>
   <i name="RTIME">     -0.10000000</i>
   <i name="WPLASMAI">      0.00000000</i>
   <v name="DFIELD">      0.00000000      0.00000000      0.00000000</v>
   <v name="WPLASMA">      0.00000000      0.00000000      0.00000000      0.00000000      0.00000000      0.00000000      0.00000000      0.00000000      0.00000000</v>
  </separator>
  <separator name="orbital magnetization" >
   <i type="logical" name="NUCIND"> F  </i>
   <v name="MAGPOS">      0.00000000      0.00000000      0.00000000</v>
   <i type="logical" name="LNICSALL"> T  </i>
   <i type="logical" name="ORBITALMAG"> F  </i>
   <i type="logical" name="LMAGBLOCH"> F  </i>
   <i type="logical" name="LCHIMAG"> F  </i>
   <i type="logical" name="LGAUGE"> T  </i>
   <i type="int" name="MAGATOM">     0</i>
   <v name="MAGDIPOL">      0.00000000      0.00000000      0.00000000</v>
   <v name="AVECCONST">      0.00000000      0.00000000      0.00000000</v>
  </separator>
  <separator name="response functions" >
   <i type="logical" name="LADDER"> F  </i>
   <i type="logical" name="LRPAFORCE"> F  </i>
   <i type="logical" name="LFXC"> F  </i>
   <i type="logical" name="LHARTREE"> T  </i>
   <i type="int" name="IBSE">     0</i>
   <v type="int" name="KPOINT">    -1     0     0     0</v>
   <i type="logical" name="LTCTE"> F  </i>
   <i type="logical" name="LTETE"> F  </i>
   <i type="logical" name="LTRIPLET"> F  </i>
   <i type="logical" name="LFXCEPS"> F  </i>
   <i type="logical" name="LFXHEG"> F  </i>
   <i type="int" name="NATURALO">     2</i>
   <i type="logical" name="L2ORDER"> F  </i>
   <i type="logical" name="LMP2LT"> F  </i>
   <i type="logical" name="LUSEW"> F  </i>
   <i name="ENCUTGW">     -2.00000000</i>
   <i name="ENCUTGWSOFT">     -2.00000000</i>
   <i name="ENCUTLF">     -1.00000000</i>
   <i type="int" name="LMAXMP2">    -1</i>
   <i name="SCISSOR">      0.00000000</i>
   <i type="int" name="NOMEGA">     0</i>
   <i type="int" name="NOMEGAR">     0</i>
   <i type="int" name="NBANDSGW">    -1</i>
   <i type="int" name="NBANDSO">    -1</i>
   <i type="int" name="NBANDSV">    -1</i>
   <i type="int" name="NELM">   100</i>
   <i type="int" name="NELMHF">     1</i>
   <i type="int" name="DIM">     3</i>
   <i type="int" name="ANTIRES">     0</i>
   <i name="OMEGAMAX">    -30.00000000</i>
   <i name="OMEGAMIN">    -30.00000000</i>
   <i name="OMEGATL">   -200.00000000</i>
   <i type="int" name="OMEGAGRID">   140</i>
   <i name="CSHIFT">     -0.10000000</i>
   <i type="logical" name="SELFENERGY"> F  </i>
   <i type="logical" name="LSPECTRAL"> F  </i>
   <i type="logical" name="LSPECTRALGW"> F  </i>
   <i type="logical" name="LSINGLES"> F  </i>
   <i type="logical" name="LFERMIGW"> F  </i>
   <i type="logical" name="ODDONLYGW"> F  </i>
   <i type="logical" name="EVENONLYGW"> F  </i>
   <i type="int" name="NKREDLFX">     1</i>
   <i type="int" name="NKREDLFY">     1</i>
   <i type="int" name="NKREDLFZ">     1</i>
   <i type="int" name="MAXMEM">  2800</i>
   <i type="int" name="TELESCOPE">     0</i>
   <i type="int" name="TAUPAR">     1</i>
   <i type="int" name="OMEGAPAR">    -1</i>
   <i name="LAMBDA">      1.00000000</i>
  </separator>
  <separator name="External order field" >
   <i name="OFIELD_KAPPA">      0.00000000</i>
   <v name="OFIELD_K">      0.00000000      0.00000000      0.00000000</v>
   <i name="OFIELD_Q6_NEAR">      0.00000000</i>
   <i name="OFIELD_Q6_FAR">      0.00000000</i>
   <i name="OFIELD_A">      0.00000000</i>
  </separator>
 </parameters>
 <atominfo>
  <atoms>       4 </atoms>
  <types>       1 </types>
  <array name="atoms" >
   <dimension dim="1">ion</dimension>
   <field type="string">element</field>
   <field type="int">atomtype</field>
   <set>
    <rc><c>Pt</c><c>   1</c></rc>
    <rc><c>Pt</c><c>   1</c></rc>
    <rc><c>Pt</c><c>   1</c></rc>
    <rc><c>Pt</c><c>   1</c></rc>
   </set>
  </array>
  <array name="atomtypes" >
   <dimension dim="1">type</dimension>
   <field type="int">atomspertype</field>
   <field type="string">element</field>
   <field>mass</field>
   <field>valence</field>
   <field type="string">pseudopotential</field>
   <set>
    <rc><c>   4</c><c>Pt</c><c>    195.08000000</c><c>     10.00000000</c><c>  PAW_PBE Pt 04Feb2005                  </c></rc>
   </set>
  </array>
 </atominfo>
 <structure name="initialpos" >
  <crystal>
   <varray name="basis" >
    <v>       3.95886423       0.00000000       0.00000000 </v>
    <v>       0.00000000       3.95886423       0.00000000 </v>
    <v>       0.00000000       0.00000000       3.95886423 </v>
   </varray>
   <i name="volume">     62.04571919 </i>
   <varray name="rec_basis" >
    <v>       0.25259770       0.00000000       0.00000000 </v>
    <v>       0.00000000       0.25259770       0.00000000 </v>
    <v>       0.00000000       0.00000000       0.25259770 </v>
   </varray>
  </crystal>
  <varray name="positions" >
   <v>       0.00000000       0.00000000       0.00000000 </v>
   <v>       0.50000000       0.50000000       0.00000000 </v>
   <v>       0.50000000       0.00000000       0.50000000 </v>
   <v>       0.00000000       0.50000000       0.50000000 </v>
  </varray>
  <varray name="selective"  type="logical" >
   <v type="logical" >  T  T  T </v>
   <v type="logical" >  T  T  T </v>
   <v type="logical" >  T  T  T </v>
   <v type="logical" >  T  T  T </v>
  </varray>
  <nose>
   <v>      -3.00000000       0.00000000       0.00010000       0.00010000 </v>
  </nose>
 </structure>
 <calculation>
  <scstep>
   <time name="dav">  847.48  371.84</time>
   <time name="total">  847.57  371.89</time>
   <energy>
    <i name="alphaZ">    245.13089572 </i>
    <i name="ewald">  -3335.35251246 </i>
    <i name="hartreedc">   -255.49601815 </i>
    <i name="XCdc">     13.30383458 </i>
    <i name="pawpsdc">   3639.26013730 </i>
    <i name="pawaedc">  -3538.03889906 </i>
    <i name="eentropy">      0.00004353 </i>
    <i name="bandstr">    513.60681311 </i>
    <i name="atom">   2916.44780723 </i>
    <i name="e_fr_energy">    198.86210181 </i>
    <i name="e_wo_entrp">    198.86205827 </i>
    <i name="e_0_energy">    198.86208729 </i>
   </energy>
  </scstep>
  <scstep>
   <time name="dav">  938.43  396.71</time>
   <time name="total">  938.43  396.71</time>
   <energy>
    <i name="e_fr_energy">    -19.46132375 </i>
    <i name="e_wo_entrp">    -19.46202901 </i>
    <i name="e_0_energy">    -19.46155884 </i>
   </energy>
  </scstep>
  <scstep>
   <time name="dav">  957.71  401.73</time>
   <time name="total">  957.71  401.73</time>
   <energy>
    <i name="e_fr_energy">    -24.38430537 </i>
    <i name="e_wo_entrp">    -24.38273248 </i>
    <i name="e_0_energy">    -24.38378107 </i>
   </energy>
  </scstep>
  <scstep>
   <time name="dav">  937.80  394.52</time>
   <time name="total">  937.80  394.52</time>
   <energy>
    <i name="e_fr_energy">    -24.42241458 </i>
    <i name="e_wo_entrp">    -24.42083089 </i>
    <i name="e_0_energy">    -24.42188668 </i>
   </energy>
  </scstep>
  <scstep>
   <time name="dav">  926.50  392.53</time>
   <time name="total">  926.50  392.53</time>
   <energy>
    <i name="e_fr_energy">    -24.42297425 </i>
    <i name="e_wo_entrp">    -24.42139030 </i>
    <i name="e_0_energy">    -24.42244626 </i>
   </energy>
  </scstep>
  <scstep>
   <time name="dav">  681.13  303.99</time>
   <time name="total">  681.13  304.00</time>
   <energy>
    <i name="alphaZ">    245.13089572 </i>
    <i name="ewald">  -3335.35251246 </i>
    <i name="hartreedc">   -255.49601815 </i>
    <i name="XCdc">     13.30383458 </i>
    <i name="pawpsdc">   3639.26013730 </i>
    <i name="pawaedc">  -3538.03889906 </i>
    <i name="eentropy">     -0.00158395 </i>
    <i name="bandstr">    290.32335605 </i>
    <i name="atom">   2916.44780723 </i>
    <i name="e_fr_energy">    -24.42298274 </i>
    <i name="e_wo_entrp">    -24.42139878 </i>
    <i name="e_0_energy">    -24.42245475 </i>
   </energy>
  </scstep>
  <structure>
   <crystal>
    <varray name="basis" >
     <v>       3.95886423       0.00000000       0.00000000 </v>
     <v>       0.00000000       3.95886423       0.00000000 </v>
     <v>       0.00000000       0.00000000       3.95886423 </v>
    </varray>
    <i name="volume">     62.04571919 </i>
    <varray name="rec_basis" >
     <v>       0.25259770       0.00000000       0.00000000 </v>
     <v>       0.00000000       0.25259770       0.00000000 </v>
     <v>       0.00000000       0.00000000       0.25259770 </v>
    </varray>
   </crystal>
   <varray name="positions" >
    <v>       0.00000000       0.00000000       0.00000000 </v>
    <v>       0.50000000       0.50000000       0.00000000 </v>
    <v>       0.50000000       0.00000000       0.50000000 </v>
    <v>       0.00000000       0.50000000       0.50000000 </v>
   </varray>
  </structure>
  <varray name="forces" >
   <v>      -0.00000000      -0.00000000      -0.00000000 </v>
   <v>      -0.00000000      -0.00000000      -0.00000000 </v>
   <v>       0.00000000       0.00000000       0.00000000 </v>
   <v>       0.00000000       0.00000000      -0.00000000 </v>
  </varray>
  <varray name="stress" >
   <v>      17.22592058       0.00000000      -0.00000000 </v>
   <v>      -0.00000000      17.22592058      -0.00000000 </v>
   <v>       0.00000000       0.00000000      17.22592058 </v>
  </varray>
  <energy>
   <i name="e_fr_energy">    -24.42298274 </i>
   <i name="e_wo_entrp">    -24.42245475 </i>
   <i name="e_0_energy">     -0.00158395 </i>
  </energy>
  <time name="totalsc"> 5293.43 2263.27</time>
  <eigenvalues>
   <array>
    <dimension dim="1">band</dimension>
    <dimension dim="2">kpoint</dimension>
    <dimension dim="3">spin</dimension>
    <field>eigene</field>
    <field>occ</field>
    <set>
     <set comment="spin 1">
      <set comment="kpoint 1">
       <r>    0.8173    1.0000 </r>
       <r>    3.8986    1.0000 </r>
       <r>    3.8986    1.0000 </r>
       <r>    3.8986    1.0000 </r>
       <r>    4.3589    1.0000 </r>
       <r>    4.3589    1.0000 </r>
       <r>    4.3589    1.0000 </r>
       <r>    7.0594    1.0000 </r>
       <r>    7.0594    1.0000 </r>
       <r>    7.0594    1.0000 </r>
       <r>    9.0651    1.0000 </r>
       <r>    9.0651    1.0000 </r>
       <r>   10.6171    1.0004 </r>
       <r>   10.6171    1.0004 </r>
       <r>   10.6171    1.0004 </r>
       <r>   11.1299   -0.0000 </r>
       <r>   11.1299   -0.0000 </r>
       <r>   11.1299   -0.0000 </r>
       <r>   11.1299   -0.0000 </r>
       <r>   11.1299   -0.0000 </r>
       <r>   11.1299   -0.0000 </r>
       <r>   12.5652    0.0000 </r>
       <r>   12.5652    0.0000 </r>
       <r>   12.5652    0.0000 </r>
       <r>   19.2478    0.0000 </r>
       <r>   19.2478    0.0000 </r>
       <r>   19.2478    0.0000 </r>
       <r>   22.0265    0.0000 </r>
       <r>   22.0265    0.0000 </r>
       <r>   22.0265    0.0000 </r>
       <r>   22.0265    0.0000 </r>
       <r>   22.0265    0.0000 </r>
      </set>
      <set comment="kpoint 2">
       <r>    1.0835    1.0000 </r>
       <r>    3.9945    1.0000 </r>
       <r>    4.0912    1.0000 </r>
       <r>    4.0912    1.0000 </r>
       <r>    4.4670    1.0000 </r>
       <r>    4.5238    1.0000 </r>
       <r>    4.5238    1.0000 </r>
       <r>    6.8892    1.0000 </r>
       <r>    7.1950    1.0000 </r>
       <r>    7.1950    1.0000 </r>
       <r>    8.8782    1.0000 </r>
       <r>    9.1340    1.0000 </r>
       <r>    9.8735    1.0000 </r>
       <r>    9.8735    1.0000 </r>
       <r>   10.3361    1.0000 </r>
       <r>   10.3361    1.0000 </r>
       <r>   10.5306    1.0000 </r>
       <r>   10.7982   -0.0068 </r>
       <r>   10.7982   -0.0068 </r>
       <r>   11.1306   -0.0000 </r>
       <r>   11.1306   -0.0000 </r>
       <r>   11.3092   -0.0000 </r>
       <r>   13.9686    0.0000 </r>
       <r>   13.9686    0.0000 </r>
       <r>   18.7780    0.0000 </r>
       <r>   18.7780    0.0000 </r>
       <r>   20.9231    0.0000 </r>
       <r>   21.7844    0.0000 </r>
       <r>   21.7844    0.0000 </r>
       <r>   22.2343    0.0000 </r>
       <r>   22.2343    0.0000 </r>
       <r>   22.6465    0.0000 </r>
      </set>
      <set comment="kpoint 3">
       <r>    1.8465    1.0000 </r>
       <r>    4.1620    1.0000 </r>
       <r>    4.6038    1.0000 </r>
       <r>    4.6038    1.0000 </r>
       <r>    4.7803    1.0000 </r>
       <r>    5.0149    1.0000 </r>
       <r>    5.0149    1.0000 </r>
       <r>    6.4403    1.0000 </r>
       <r>    7.5957    1.0000 </r>
       <r>    7.5957    1.0000 </r>
       <r>    8.2965    1.0000 </r>
       <r>    8.2965    1.0000 </r>
       <r>    8.3955    1.0000 </r>
       <r>    9.2553    1.0000 </r>
       <r>    9.3306    1.0000 </r>
       <r>    9.6048    1.0000 </r>
       <r>    9.6048    1.0000 </r>
       <r>   10.0032    1.0000 </r>
       <r>   10.0032    1.0000 </r>
       <r>   10.2948    1.0000 </r>
       <r>   11.1318   -0.0000 </r>
       <r>   11.1318   -0.0000 </r>
       <r>   15.9613    0.0000 </r>
       <r>   15.9613    0.0000 </r>
       <r>   18.0584    0.0000 </r>
       <r>   18.0584    0.0000 </r>
       <r>   21.0127    0.0000 </r>
       <r>   21.0127    0.0000 </r>
       <r>   22.4413    0.0000 </r>
       <r>   22.4413    0.0000 </r>
       <r>   24.2783    0.0000 </r>
       <r>   24.2829    0.0000 </r>
      </set>
      <set comment="kpoint 4">
       <r>    2.9530    1.0000 </r>
       <r>    3.9302    1.0000 </r>
       <r>    5.1569    1.0000 </r>
       <r>    5.1569    1.0000 </r>
       <r>    5.2638    1.0000 </r>
       <r>    5.8216    1.0000 </r>
       <r>    5.8216    1.0000 </r>
       <r>    5.8518    1.0000 </r>
       <r>    6.9254    1.0000 </r>
       <r>    6.9254    1.0000 </r>
       <r>    7.8833    1.0000 </r>
       <r>    7.9436    1.0000 </r>
       <r>    8.2401    1.0000 </r>
       <r>    8.2401    1.0000 </r>
       <r>    8.8608    1.0000 </r>
       <r>    8.8608    1.0000 </r>
       <r>    9.0783    1.0000 </r>
       <r>    9.0783    1.0000 </r>
       <r>    9.6254    1.0000 </r>
       <r>    9.9688    1.0000 </r>
       <r>   11.1330   -0.0000 </r>
       <r>   11.1330   -0.0000 </r>
       <r>   17.6591    0.0000 </r>
       <r>   17.6591    0.0000 </r>
       <r>   17.9361    0.0000 </r>
       <r>   17.9361    0.0000 </r>
       <r>   19.6885    0.0000 </r>
       <r>   19.6885    0.0000 </r>
       <r>   22.4962    0.0000 </r>
       <r>   22.4962    0.0000 </r>
       <r>   26.4717    0.0000 </r>
       <r>   26.4720    0.0000 </r>
      </set>
      <set comment="kpoint 5">
       <r>    1.3404    1.0000 </r>
       <r>    4.1922    1.0000 </r>
       <r>    4.1922    1.0000 </r>
       <r>    4.2284    1.0000 </r>
       <r>    4.6258    1.0000 </r>
       <r>    4.6258    1.0000 </r>
       <r>    4.7196    1.0000 </r>
       <r>    6.8190    1.0000 </r>
       <r>    7.2460    1.0000 </r>
       <r>    7.2910    1.0000 </r>
       <r>    8.8353    1.0000 </r>
       <r>    9.1101    1.0000 </r>
       <r>    9.3222    1.0000 </r>
       <r>    9.3222    1.0000 </r>
       <r>    9.3331    1.0000 </r>
       <r>   10.1103    1.0000 </r>
       <r>   10.3364    1.0000 </r>
       <r>   10.3364    1.0000 </r>
       <r>   10.7968   -0.0011 </r>
       <r>   10.7968   -0.0011 </r>
       <r>   10.9170   -0.0000 </r>
       <r>   12.8231    0.0000 </r>
       <r>   12.8231    0.0000 </r>
       <r>   14.8766    0.0000 </r>
       <r>   18.1223    0.0000 </r>
       <r>   20.2415    0.0000 </r>
       <r>   20.2415    0.0000 </r>
       <r>   21.2861    0.0000 </r>
       <r>   22.3918    0.0000 </r>
       <r>   22.3918    0.0000 </r>
       <r>   22.9835    0.0000 </r>
       <r>   22.9836    0.0000 </r>
      </set>
      <set comment="kpoint 6">
       <r>    2.0769    1.0000 </r>
       <r>    4.3718    1.0000 </r>
       <r>    4.6380    1.0000 </r>
       <r>    4.7241    1.0000 </r>
       <r>    4.9206    1.0000 </r>
       <r>    5.0974    1.0000 </r>
       <r>    5.2357    1.0000 </r>
       <r>    6.4517    1.0000 </r>
       <r>    7.5274    1.0000 </r>
       <r>    7.6031    1.0000 </r>
       <r>    7.8357    1.0000 </r>
       <r>    8.1285    1.0000 </r>
       <r>    8.2234    1.0000 </r>
       <r>    8.4948    1.0000 </r>
       <r>    9.3553    1.0000 </r>
       <r>    9.4943    1.0000 </r>
       <r>    9.6940    1.0000 </r>
       <r>    9.9674    1.0000 </r>
       <r>    9.9988    1.0000 </r>
       <r>   10.7927    0.0193 </r>
       <r>   10.8059   -0.0279 </r>
       <r>   11.2778   -0.0000 </r>
       <r>   14.4659    0.0000 </r>
       <r>   16.6292    0.0000 </r>
       <r>   17.1174    0.0000 </r>
       <r>   19.4187    0.0000 </r>
       <r>   20.7120    0.0000 </r>
       <r>   21.5910    0.0000 </r>
       <r>   22.6616    0.0000 </r>
       <r>   23.2978    0.0000 </r>
       <r>   23.8757    0.0000 </r>
       <r>   23.9751    0.0000 </r>
      </set>
      <set comment="kpoint 7">
       <r>    3.1514    1.0000 </r>
       <r>    4.1308    1.0000 </r>
       <r>    5.2303    1.0000 </r>
       <r>    5.3147    1.0000 </r>
       <r>    5.3732    1.0000 </r>
       <r>    5.8429    1.0000 </r>
       <r>    5.8662    1.0000 </r>
       <r>    5.9181    1.0000 </r>
       <r>    6.6144    1.0000 </r>
       <r>    6.9003    1.0000 </r>
       <r>    7.4265    1.0000 </r>
       <r>    7.4977    1.0000 </r>
       <r>    8.2375    1.0000 </r>
       <r>    8.5288    1.0000 </r>
       <r>    8.8676    1.0000 </r>
       <r>    8.9735    1.0000 </r>
       <r>    9.0732    1.0000 </r>
       <r>    9.2090    1.0000 </r>
       <r>    9.7907    1.0000 </r>
       <r>   10.3686    1.0000 </r>
       <r>   10.7856    0.0695 </r>
       <r>   10.7872    0.0562 </r>
       <r>   15.6830    0.0000 </r>
       <r>   16.3994    0.0000 </r>
       <r>   18.5165    0.0000 </r>
       <r>   19.3343    0.0000 </r>
       <r>   19.9667    0.0000 </r>
       <r>   20.2483    0.0000 </r>
       <r>   23.5370    0.0000 </r>
       <r>   23.8236    0.0000 </r>
       <r>   24.8261    0.0000 </r>
       <r>   26.0615    0.0000 </r>
      </set>
      <set comment="kpoint 8">
       <r>    2.7345    1.0000 </r>
       <r>    4.8525    1.0000 </r>
       <r>    4.9510    1.0000 </r>
       <r>    4.9510    1.0000 </r>
       <r>    5.3324    1.0000 </r>
       <r>    5.3324    1.0000 </r>
       <r>    5.7144    1.0000 </r>
       <r>    6.3629    1.0000 </r>
       <r>    7.0293    1.0000 </r>
       <r>    7.0293    1.0000 </r>
       <r>    7.4490    1.0000 </r>
       <r>    7.5921    1.0000 </r>
       <r>    7.7778    1.0000 </r>
       <r>    8.3843    1.0000 </r>
       <r>    9.1308    1.0000 </r>
       <r>    9.4971    1.0000 </r>
       <r>    9.4971    1.0000 </r>
       <r>    9.7454    1.0000 </r>
       <r>    9.9912    1.0000 </r>
       <r>    9.9912    1.0000 </r>
       <r>   10.3238    1.0000 </r>
       <r>   12.6667    0.0000 </r>
       <r>   12.6667    0.0000 </r>
       <r>   15.7244    0.0000 </r>
       <r>   18.1427    0.0000 </r>
       <r>   20.3538    0.0000 </r>
       <r>   21.1127    0.0000 </r>
       <r>   21.1127    0.0000 </r>
       <r>   23.0680    0.0000 </r>
       <r>   23.0680    0.0000 </r>
       <r>   25.4017    0.0000 </r>
       <r>   25.4057    0.0000 </r>
      </set>
      <set comment="kpoint 9">
       <r>    3.6988    1.0000 </r>
       <r>    4.6614    1.0000 </r>
       <r>    5.3185    1.0000 </r>
       <r>    5.6805    1.0000 </r>
       <r>    5.6918    1.0000 </r>
       <r>    5.9822    1.0000 </r>
       <r>    6.0477    1.0000 </r>
       <r>    6.0513    1.0000 </r>
       <r>    6.0662    1.0000 </r>
       <r>    6.7614    1.0000 </r>
       <r>    6.7920    1.0000 </r>
       <r>    7.1765    1.0000 </r>
       <r>    8.2929    1.0000 </r>
       <r>    8.3917    1.0000 </r>
       <r>    8.7245    1.0000 </r>
       <r>    8.9040    1.0000 </r>
       <r>    8.9108    1.0000 </r>
       <r>    9.0801    1.0000 </r>
       <r>   10.0008    1.0000 </r>
       <r>   10.0775    1.0000 </r>
       <r>   10.4789    1.0000 </r>
       <r>   11.4018   -0.0000 </r>
       <r>   13.8258    0.0000 </r>
       <r>   14.7211    0.0000 </r>
       <r>   19.9236    0.0000 </r>
       <r>   20.0866    0.0000 </r>
       <r>   20.2371    0.0000 </r>
       <r>   21.6486    0.0000 </r>
       <r>   22.7685    0.0000 </r>
       <r>   24.2605    0.0000 </r>
       <r>   24.9358    0.0000 </r>
       <r>   25.8556    0.0000 </r>
      </set>
      <set comment="kpoint 10">
       <r>    4.4484    1.0000 </r>
       <r>    5.2089    1.0000 </r>
       <r>    5.2089    1.0000 </r>
       <r>    5.3464    1.0000 </r>
       <r>    6.1123    1.0000 </r>
       <r>    6.1123    1.0000 </r>
       <r>    6.1606    1.0000 </r>
       <r>    6.3693    1.0000 </r>
       <r>    6.4389    1.0000 </r>
       <r>    6.4389    1.0000 </r>
       <r>    6.5283    1.0000 </r>
       <r>    6.9528    1.0000 </r>
       <r>    8.1416    1.0000 </r>
       <r>    8.3808    1.0000 </r>
       <r>    8.4477    1.0000 </r>
       <r>    8.4477    1.0000 </r>
       <r>    8.5699    1.0000 </r>
       <r>    9.1732    1.0000 </r>
       <r>    9.1732    1.0000 </r>
       <r>    9.4800    1.0000 </r>
       <r>   11.4355   -0.0000 </r>
       <r>   12.4904    0.0000 </r>
       <r>   12.4904    0.0000 </r>
       <r>   13.5064    0.0000 </r>
       <r>   20.4025    0.0000 </r>
       <r>   21.2625    0.0000 </r>
       <r>   21.2625    0.0000 </r>
       <r>   21.6627    0.0000 </r>
       <r>   22.6179    0.0000 </r>
       <r>   23.4080    0.0000 </r>
       <r>   23.4080    0.0000 </r>
       <r>   25.1393    0.0000 </r>
      </set>
      <set comment="kpoint 11">
       <r>    1.5838    1.0000 </r>
       <r>    4.3207    1.0000 </r>
       <r>    4.3207    1.0000 </r>
       <r>    4.3207    1.0000 </r>
       <r>    4.8254    1.0000 </r>
       <r>    4.8254    1.0000 </r>
       <r>    4.8254    1.0000 </r>
       <r>    6.7808    1.0000 </r>
       <r>    7.3150    1.0000 </r>
       <r>    7.3150    1.0000 </r>
       <r>    8.8715    1.0000 </r>
       <r>    8.8715    1.0000 </r>
       <r>    8.8715    1.0000 </r>
       <r>    8.9654    1.0000 </r>
       <r>    8.9654    1.0000 </r>
       <r>    9.8044    1.0000 </r>
       <r>    9.8044    1.0000 </r>
       <r>    9.8044    1.0000 </r>
       <r>   10.9115   -0.0000 </r>
       <r>   10.9115   -0.0000 </r>
       <r>   10.9115   -0.0000 </r>
       <r>   13.5845    0.0000 </r>
       <r>   13.5845    0.0000 </r>
       <r>   13.5845    0.0000 </r>
       <r>   19.2586    0.0000 </r>
       <r>   19.2586    0.0000 </r>
       <r>   19.2586    0.0000 </r>
       <r>   22.4526    0.0000 </r>
       <r>   22.4526    0.0000 </r>
       <r>   22.4526    0.0000 </r>
       <r>   23.6590    0.0000 </r>
       <r>   23.6590    0.0000 </r>
      </set>
      <set comment="kpoint 12">
       <r>    2.2794    1.0000 </r>
       <r>    4.4733    1.0000 </r>
       <r>    4.7111    1.0000 </r>
       <r>    4.7111    1.0000 </r>
       <r>    5.1317    1.0000 </r>
       <r>    5.3394    1.0000 </r>
       <r>    5.3394    1.0000 </r>
       <r>    6.5040    1.0000 </r>
       <r>    7.4888    1.0000 </r>
       <r>    7.5376    1.0000 </r>
       <r>    7.7570    1.0000 </r>
       <r>    7.7570    1.0000 </r>
       <r>    7.8681    1.0000 </r>
       <r>    8.6983    1.0000 </r>
       <r>    9.1708    1.0000 </r>
       <r>    9.3194    1.0000 </r>
       <r>    9.3342    1.0000 </r>
       <r>    9.3342    1.0000 </r>
       <r>   10.7246    0.9183 </r>
       <r>   10.7594    0.4153 </r>
       <r>   10.7594    0.4153 </r>
       <r>   11.6622   -0.0000 </r>
       <r>   14.9649    0.0000 </r>
       <r>   14.9649    0.0000 </r>
       <r>   17.9912    0.0000 </r>
       <r>   17.9912    0.0000 </r>
       <r>   21.1672    0.0000 </r>
       <r>   22.2812    0.0000 </r>
       <r>   22.2812    0.0000 </r>
       <r>   24.2513    0.0000 </r>
       <r>   24.2515    0.0000 </r>
       <r>   25.0274    0.0000 </r>
      </set>
      <set comment="kpoint 13">
       <r>    3.2903    1.0000 </r>
       <r>    4.2207    1.0000 </r>
       <r>    5.3173    1.0000 </r>
       <r>    5.3173    1.0000 </r>
       <r>    5.5670    1.0000 </r>
       <r>    5.7870    1.0000 </r>
       <r>    5.7870    1.0000 </r>
       <r>    6.0485    1.0000 </r>
       <r>    6.8243    1.0000 </r>
       <r>    6.8243    1.0000 </r>
       <r>    7.2147    1.0000 </r>
       <r>    7.3715    1.0000 </r>
       <r>    7.9355    1.0000 </r>
       <r>    8.5003    1.0000 </r>
       <r>    8.8206    1.0000 </r>
       <r>    8.8206    1.0000 </r>
       <r>    9.0086    1.0000 </r>
       <r>    9.8086    1.0000 </r>
       <r>   10.0823    1.0000 </r>
       <r>   10.3197    1.0000 </r>
       <r>   10.6321    1.0015 </r>
       <r>   10.6321    1.0015 </r>
       <r>   16.0677    0.0000 </r>
       <r>   16.0677    0.0000 </r>
       <r>   17.2276    0.0000 </r>
       <r>   17.2276    0.0000 </r>
       <r>   22.0854    0.0000 </r>
       <r>   22.0854    0.0000 </r>
       <r>   23.1597    0.0000 </r>
       <r>   24.1875    0.0000 </r>
       <r>   24.1876    0.0000 </r>
       <r>   24.7581    0.0000 </r>
      </set>
      <set comment="kpoint 14">
       <r>    2.8495    1.0000 </r>
       <r>    4.7753    1.0000 </r>
       <r>    4.7753    1.0000 </r>
       <r>    4.8385    1.0000 </r>
       <r>    5.6709    1.0000 </r>
       <r>    5.6709    1.0000 </r>
       <r>    5.7983    1.0000 </r>
       <r>    6.5400    1.0000 </r>
       <r>    7.0753    1.0000 </r>
       <r>    7.0753    1.0000 </r>
       <r>    7.4248    1.0000 </r>
       <r>    7.4553    1.0000 </r>
       <r>    7.5400    1.0000 </r>
       <r>    8.7684    1.0000 </r>
       <r>    8.7986    1.0000 </r>
       <r>    8.8052    1.0000 </r>
       <r>    8.8052    1.0000 </r>
       <r>    9.6441    1.0000 </r>
       <r>   10.5613    1.0000 </r>
       <r>   10.5640    1.0000 </r>
       <r>   10.5640    1.0000 </r>
       <r>   12.8627    0.0000 </r>
       <r>   12.8627    0.0000 </r>
       <r>   16.0255    0.0000 </r>
       <r>   16.2638    0.0000 </r>
       <r>   19.4339    0.0000 </r>
       <r>   19.4339    0.0000 </r>
       <r>   22.5543    0.0000 </r>
       <r>   24.3707    0.0000 </r>
       <r>   24.7491    0.0000 </r>
       <r>   24.7492    0.0000 </r>
       <r>   25.4616    0.0000 </r>
      </set>
      <set comment="kpoint 15">
       <r>    3.6614    1.0000 </r>
       <r>    4.4414    1.0000 </r>
       <r>    5.1304    1.0000 </r>
       <r>    5.1694    1.0000 </r>
       <r>    5.9832    1.0000 </r>
       <r>    5.9906    1.0000 </r>
       <r>    6.1179    1.0000 </r>
       <r>    6.3969    1.0000 </r>
       <r>    6.7854    1.0000 </r>
       <r>    6.8000    1.0000 </r>
       <r>    7.1271    1.0000 </r>
       <r>    7.1680    1.0000 </r>
       <r>    7.7425    1.0000 </r>
       <r>    8.1923    1.0000 </r>
       <r>    8.4078    1.0000 </r>
       <r>    8.4911    1.0000 </r>
       <r>    9.1247    1.0000 </r>
       <r>    9.9510    1.0000 </r>
       <r>   10.3050    1.0000 </r>
       <r>   10.3066    1.0000 </r>
       <r>   10.3635    1.0000 </r>
       <r>   11.3148   -0.0000 </r>
       <r>   14.0174    0.0000 </r>
       <r>   15.0271    0.0000 </r>
       <r>   17.1208    0.0000 </r>
       <r>   18.1431    0.0000 </r>
       <r>   21.1755    0.0000 </r>
       <r>   22.8522    0.0000 </r>
       <r>   23.0236    0.0000 </r>
       <r>   23.9051    0.0000 </r>
       <r>   25.7713    0.0000 </r>
       <r>   26.4510    0.0000 </r>
      </set>
      <set comment="kpoint 16">
       <r>    4.1585    1.0000 </r>
       <r>    4.6885    1.0000 </r>
       <r>    4.6885    1.0000 </r>
       <r>    4.9038    1.0000 </r>
       <r>    6.3050    1.0000 </r>
       <r>    6.5007    1.0000 </r>
       <r>    6.5007    1.0000 </r>
       <r>    6.7096    1.0000 </r>
       <r>    6.8619    1.0000 </r>
       <r>    6.8619    1.0000 </r>
       <r>    7.0418    1.0000 </r>
       <r>    7.2568    1.0000 </r>
       <r>    7.6589    1.0000 </r>
       <r>    7.9754    1.0000 </r>
       <r>    7.9754    1.0000 </r>
       <r>    7.9958    1.0000 </r>
       <r>    9.1753    1.0000 </r>
       <r>    9.7286    1.0000 </r>
       <r>    9.7286    1.0000 </r>
       <r>    9.8902    1.0000 </r>
       <r>   11.3107   -0.0000 </r>
       <r>   12.4319    0.0000 </r>
       <r>   12.4319    0.0000 </r>
       <r>   13.5554    0.0000 </r>
       <r>   18.2393    0.0000 </r>
       <r>   19.5430    0.0000 </r>
       <r>   19.5430    0.0000 </r>
       <r>   21.1251    0.0000 </r>
       <r>   23.9054    0.0000 </r>
       <r>   25.1342    0.0000 </r>
       <r>   25.1342    0.0000 </r>
       <r>   26.2355    0.0000 </r>
      </set>
      <set comment="kpoint 17">
       <r>    3.1731    1.0000 </r>
       <r>    4.6448    1.0000 </r>
       <r>    4.6448    1.0000 </r>
       <r>    4.6448    1.0000 </r>
       <r>    6.1248    1.0000 </r>
       <r>    6.1248    1.0000 </r>
       <r>    6.1248    1.0000 </r>
       <r>    6.9684    1.0000 </r>
       <r>    7.2463    1.0000 </r>
       <r>    7.2463    1.0000 </r>
       <r>    7.2463    1.0000 </r>
       <r>    7.3434    1.0000 </r>
       <r>    7.3434    1.0000 </r>
       <r>    8.1666    1.0000 </r>
       <r>    8.1666    1.0000 </r>
       <r>    8.1666    1.0000 </r>
       <r>    9.4904    1.0000 </r>
       <r>    9.4904    1.0000 </r>
       <r>   10.7751    0.1810 </r>
       <r>   10.7751    0.1810 </r>
       <r>   10.7751    0.1810 </r>
       <r>   13.4917    0.0000 </r>
       <r>   13.4917    0.0000 </r>
       <r>   13.4917    0.0000 </r>
       <r>   17.5035    0.0000 </r>
       <r>   17.5035    0.0000 </r>
       <r>   17.5035    0.0000 </r>
       <r>   22.5922    0.0000 </r>
       <r>   25.2596    0.0000 </r>
       <r>   25.2596    0.0000 </r>
       <r>   25.2596    0.0000 </r>
       <r>   26.7813    0.0000 </r>
      </set>
      <set comment="kpoint 18">
       <r>    3.6503    1.0000 </r>
       <r>    4.1925    1.0000 </r>
       <r>    4.6177    1.0000 </r>
       <r>    4.6177    1.0000 </r>
       <r>    6.2598    1.0000 </r>
       <r>    6.2598    1.0000 </r>
       <r>    6.6606    1.0000 </r>
       <r>    7.1155    1.0000 </r>
       <r>    7.1950    1.0000 </r>
       <r>    7.2412    1.0000 </r>
       <r>    7.3819    1.0000 </r>
       <r>    7.6128    1.0000 </r>
       <r>    7.6128    1.0000 </r>
       <r>    7.6685    1.0000 </r>
       <r>    7.8819    1.0000 </r>
       <r>    7.8819    1.0000 </r>
       <r>    9.9053    1.0000 </r>
       <r>   10.1628    1.0000 </r>
       <r>   10.5656    1.0000 </r>
       <r>   10.5656    1.0000 </r>
       <r>   10.6392    1.0026 </r>
       <r>   11.3453   -0.0000 </r>
       <r>   14.2167    0.0000 </r>
       <r>   14.2167    0.0000 </r>
       <r>   16.2612    0.0000 </r>
       <r>   16.2612    0.0000 </r>
       <r>   19.1602    0.0000 </r>
       <r>   20.8854    0.0000 </r>
       <r>   25.6070    0.0000 </r>
       <r>   25.6073    0.0000 </r>
       <r>   26.3531    0.0000 </r>
       <r>   26.4234    0.0000 </r>
      </set>
      <set comment="kpoint 19">
       <r>    3.7906    1.0000 </r>
       <r>    4.1229    1.0000 </r>
       <r>    4.1229    1.0000 </r>
       <r>    4.2631    1.0000 </r>
       <r>    6.5535    1.0000 </r>
       <r>    6.6903    1.0000 </r>
       <r>    6.6903    1.0000 </r>
       <r>    7.0296    1.0000 </r>
       <r>    7.2189    1.0000 </r>
       <r>    7.4071    1.0000 </r>
       <r>    7.4071    1.0000 </r>
       <r>    7.4641    1.0000 </r>
       <r>    8.0730    1.0000 </r>
       <r>    8.0793    1.0000 </r>
       <r>    8.0793    1.0000 </r>
       <r>    8.2507    1.0000 </r>
       <r>    9.9340    1.0000 </r>
       <r>   10.4177    1.0000 </r>
       <r>   10.4177    1.0000 </r>
       <r>   10.4438    1.0000 </r>
       <r>   10.9344   -0.0000 </r>
       <r>   12.1965    0.0000 </r>
       <r>   12.1965    0.0000 </r>
       <r>   13.2771    0.0000 </r>
       <r>   16.4033    0.0000 </r>
       <r>   17.5477    0.0000 </r>
       <r>   17.5477    0.0000 </r>
       <r>   19.1171    0.0000 </r>
       <r>   25.6503    0.0000 </r>
       <r>   25.8339    0.0000 </r>
       <r>   25.8616    0.0000 </r>
       <r>   25.8618    0.0000 </r>
      </set>
      <set comment="kpoint 20">
       <r>    3.6597    1.0000 </r>
       <r>    3.8213    1.0000 </r>
       <r>    3.8213    1.0000 </r>
       <r>    3.8213    1.0000 </r>
       <r>    6.8535    1.0000 </r>
       <r>    6.8535    1.0000 </r>
       <r>    6.8535    1.0000 </r>
       <r>    7.0306    1.0000 </r>
       <r>    7.0306    1.0000 </r>
       <r>    7.1176    1.0000 </r>
       <r>    7.1176    1.0000 </r>
       <r>    7.1176    1.0000 </r>
       <r>    9.1976    1.0000 </r>
       <r>    9.1976    1.0000 </r>
       <r>    9.1976    1.0000 </r>
       <r>    9.4964    1.0000 </r>
       <r>   10.5017    1.0000 </r>
       <r>   10.5017    1.0000 </r>
       <r>   10.6926    1.0354 </r>
       <r>   10.6926    1.0354 </r>
       <r>   10.6926    1.0354 </r>
       <r>   11.8074   -0.0000 </r>
       <r>   11.8074   -0.0000 </r>
       <r>   11.8074   -0.0000 </r>
       <r>   16.4138    0.0000 </r>
       <r>   16.4138    0.0000 </r>
       <r>   16.4138    0.0000 </r>
       <r>   17.4953    0.0000 </r>
       <r>   25.2257    0.0000 </r>
       <r>   25.2979    0.0000 </r>
       <r>   25.2979    0.0000 </r>
       <r>   25.2979    0.0000 </r>
      </set>
     </set>
     <set comment="spin 2">
      <set comment="kpoint 1">
       <r>    0.8409    1.0000 </r>
       <r>    4.0048    1.0000 </r>
       <r>    4.0048    1.0000 </r>
       <r>    4.0048    1.0000 </r>
       <r>    4.4708    1.0000 </r>
       <r>    4.4708    1.0000 </r>
       <r>    4.4708    1.0000 </r>
       <r>    7.1989    1.0000 </r>
       <r>    7.1989    1.0000 </r>
       <r>    7.1989    1.0000 </r>
       <r>    9.2394    1.0000 </r>
       <r>    9.2394    1.0000 </r>
       <r>   10.8041   -0.0244 </r>
       <r>   10.8041   -0.0244 </r>
       <r>   10.8041   -0.0244 </r>
       <r>   11.3018   -0.0000 </r>
       <r>   11.3018   -0.0000 </r>
       <r>   11.3018   -0.0000 </r>
       <r>   11.3018   -0.0000 </r>
       <r>   11.3018   -0.0000 </r>
       <r>   11.3018   -0.0000 </r>
       <r>   12.5699    0.0000 </r>
       <r>   12.5699    0.0000 </r>
       <r>   12.5699    0.0000 </r>
       <r>   19.3622    0.0000 </r>
       <r>   19.3622    0.0000 </r>
       <r>   19.3622    0.0000 </r>
       <r>   22.0489    0.0000 </r>
       <r>   22.0489    0.0000 </r>
       <r>   22.0489    0.0000 </r>
       <r>   22.0489    0.0000 </r>
       <r>   22.0489    0.0000 </r>
      </set>
      <set comment="kpoint 2">
       <r>    1.1071    1.0000 </r>
       <r>    4.0977    1.0000 </r>
       <r>    4.1985    1.0000 </r>
       <r>    4.1985    1.0000 </r>
       <r>    4.5797    1.0000 </r>
       <r>    4.6355    1.0000 </r>
       <r>    4.6355    1.0000 </r>
       <r>    7.0265    1.0000 </r>
       <r>    7.3350    1.0000 </r>
       <r>    7.3350    1.0000 </r>
       <r>    9.0498    1.0000 </r>
       <r>    9.3087    1.0000 </r>
       <r>    9.9940    1.0000 </r>
       <r>    9.9940    1.0000 </r>
       <r>   10.5179    1.0000 </r>
       <r>   10.5179    1.0000 </r>
       <r>   10.7168    0.9770 </r>
       <r>   10.9649   -0.0000 </r>
       <r>   10.9649   -0.0000 </r>
       <r>   11.3024   -0.0000 </r>
       <r>   11.3024   -0.0000 </r>
       <r>   11.3372   -0.0000 </r>
       <r>   14.0235    0.0000 </r>
       <r>   14.0235    0.0000 </r>
       <r>   18.8779    0.0000 </r>
       <r>   18.8779    0.0000 </r>
       <r>   21.0177    0.0000 </r>
       <r>   21.8104    0.0000 </r>
       <r>   21.8104    0.0000 </r>
       <r>   22.2770    0.0000 </r>
       <r>   22.2771    0.0000 </r>
       <r>   22.6741    0.0000 </r>
      </set>
      <set comment="kpoint 3">
       <r>    1.8706    1.0000 </r>
       <r>    4.2508    1.0000 </r>
       <r>    4.7143    1.0000 </r>
       <r>    4.7143    1.0000 </r>
       <r>    4.8955    1.0000 </r>
       <r>    5.1261    1.0000 </r>
       <r>    5.1261    1.0000 </r>
       <r>    6.5719    1.0000 </r>
       <r>    7.7371    1.0000 </r>
       <r>    7.7371    1.0000 </r>
       <r>    8.4080    1.0000 </r>
       <r>    8.4080    1.0000 </r>
       <r>    8.5593    1.0000 </r>
       <r>    9.3178    1.0000 </r>
       <r>    9.5067    1.0000 </r>
       <r>    9.7736    1.0000 </r>
       <r>    9.7736    1.0000 </r>
       <r>   10.1604    1.0000 </r>
       <r>   10.1604    1.0000 </r>
       <r>   10.4787    1.0000 </r>
       <r>   11.3037   -0.0000 </r>
       <r>   11.3037   -0.0000 </r>
       <r>   16.0218    0.0000 </r>
       <r>   16.0218    0.0000 </r>
       <r>   18.1496    0.0000 </r>
       <r>   18.1496    0.0000 </r>
       <r>   21.0479    0.0000 </r>
       <r>   21.0479    0.0000 </r>
       <r>   22.5038    0.0000 </r>
       <r>   22.5038    0.0000 </r>
       <r>   24.3154    0.0000 </r>
       <r>   24.3172    0.0000 </r>
      </set>
      <set comment="kpoint 4">
       <r>    2.9820    1.0000 </r>
       <r>    3.9835    1.0000 </r>
       <r>    5.2709    1.0000 </r>
       <r>    5.2709    1.0000 </r>
       <r>    5.3831    1.0000 </r>
       <r>    5.9321    1.0000 </r>
       <r>    5.9321    1.0000 </r>
       <r>    5.9769    1.0000 </r>
       <r>    7.0356    1.0000 </r>
       <r>    7.0356    1.0000 </r>
       <r>    8.0319    1.0000 </r>
       <r>    8.0558    1.0000 </r>
       <r>    8.3844    1.0000 </r>
       <r>    8.3844    1.0000 </r>
       <r>    9.0180    1.0000 </r>
       <r>    9.0180    1.0000 </r>
       <r>    9.2277    1.0000 </r>
       <r>    9.2277    1.0000 </r>
       <r>    9.8038    1.0000 </r>
       <r>   10.1500    1.0000 </r>
       <r>   11.3049   -0.0000 </r>
       <r>   11.3049   -0.0000 </r>
       <r>   17.7507    0.0000 </r>
       <r>   17.7507    0.0000 </r>
       <r>   17.9918    0.0000 </r>
       <r>   17.9918    0.0000 </r>
       <r>   19.7349    0.0000 </r>
       <r>   19.7349    0.0000 </r>
       <r>   22.5663    0.0000 </r>
       <r>   22.5663    0.0000 </r>
       <r>   26.5161    0.0000 </r>
       <r>   26.5162    0.0000 </r>
      </set>
      <set comment="kpoint 5">
       <r>    1.3642    1.0000 </r>
       <r>    4.2966    1.0000 </r>
       <r>    4.2966    1.0000 </r>
       <r>    4.3375    1.0000 </r>
       <r>    4.7382    1.0000 </r>
       <r>    4.7382    1.0000 </r>
       <r>    4.8302    1.0000 </r>
       <r>    6.9539    1.0000 </r>
       <r>    7.3867    1.0000 </r>
       <r>    7.4313    1.0000 </r>
       <r>    9.0062    1.0000 </r>
       <r>    9.2836    1.0000 </r>
       <r>    9.4362    1.0000 </r>
       <r>    9.4362    1.0000 </r>
       <r>    9.4460    1.0000 </r>
       <r>   10.2888    1.0000 </r>
       <r>   10.5104    1.0000 </r>
       <r>   10.5104    1.0000 </r>
       <r>   10.9636   -0.0000 </r>
       <r>   10.9636   -0.0000 </r>
       <r>   11.0869   -0.0000 </r>
       <r>   12.9125    0.0000 </r>
       <r>   12.9125    0.0000 </r>
       <r>   14.9400    0.0000 </r>
       <r>   18.2029    0.0000 </r>
       <r>   20.3155    0.0000 </r>
       <r>   20.3155    0.0000 </r>
       <r>   21.3489    0.0000 </r>
       <r>   22.4229    0.0000 </r>
       <r>   22.4229    0.0000 </r>
       <r>   23.0341    0.0000 </r>
       <r>   23.0346    0.0000 </r>
      </set>
      <set comment="kpoint 6">
       <r>    2.1016    1.0000 </r>
       <r>    4.4616    1.0000 </r>
       <r>    4.7504    1.0000 </r>
       <r>    4.8321    1.0000 </r>
       <r>    5.0355    1.0000 </r>
       <r>    5.2092    1.0000 </r>
       <r>    5.3444    1.0000 </r>
       <r>    6.5815    1.0000 </r>
       <r>    7.6697    1.0000 </r>
       <r>    7.7453    1.0000 </r>
       <r>    7.9447    1.0000 </r>
       <r>    8.2382    1.0000 </r>
       <r>    8.3247    1.0000 </r>
       <r>    8.6588    1.0000 </r>
       <r>    9.5290    1.0000 </r>
       <r>    9.6633    1.0000 </r>
       <r>    9.8602    1.0000 </r>
       <r>   10.1286    1.0000 </r>
       <r>   10.1562    1.0000 </r>
       <r>   10.9596   -0.0000 </r>
       <r>   10.9741   -0.0000 </r>
       <r>   11.4173   -0.0000 </r>
       <r>   14.5581    0.0000 </r>
       <r>   16.6944    0.0000 </r>
       <r>   17.1897    0.0000 </r>
       <r>   19.4838    0.0000 </r>
       <r>   20.7873    0.0000 </r>
       <r>   21.6313    0.0000 </r>
       <r>   22.7141    0.0000 </r>
       <r>   23.3605    0.0000 </r>
       <r>   23.9183    0.0000 </r>
       <r>   24.0159    0.0000 </r>
      </set>
      <set comment="kpoint 7">
       <r>    3.1812    1.0000 </r>
       <r>    4.1838    1.0000 </r>
       <r>    5.3470    1.0000 </r>
       <r>    5.4285    1.0000 </r>
       <r>    5.4919    1.0000 </r>
       <r>    5.9480    1.0000 </r>
       <r>    5.9771    1.0000 </r>
       <r>    6.0420    1.0000 </r>
       <r>    6.7204    1.0000 </r>
       <r>    7.0102    1.0000 </r>
       <r>    7.5515    1.0000 </r>
       <r>    7.6438    1.0000 </r>
       <r>    8.3824    1.0000 </r>
       <r>    8.6787    1.0000 </r>
       <r>    9.0271    1.0000 </r>
       <r>    9.1322    1.0000 </r>
       <r>    9.2229    1.0000 </r>
       <r>    9.3579    1.0000 </r>
       <r>    9.9647    1.0000 </r>
       <r>   10.5374    1.0000 </r>
       <r>   10.9530   -0.0000 </r>
       <r>   10.9544   -0.0000 </r>
       <r>   15.7714    0.0000 </r>
       <r>   16.4786    0.0000 </r>
       <r>   18.5767    0.0000 </r>
       <r>   19.4022    0.0000 </r>
       <r>   20.0408    0.0000 </r>
       <r>   20.2995    0.0000 </r>
       <r>   23.5996    0.0000 </r>
       <r>   23.8789    0.0000 </r>
       <r>   24.8748    0.0000 </r>
       <r>   26.0989    0.0000 </r>
      </set>
      <set comment="kpoint 8">
       <r>    2.7615    1.0000 </r>
       <r>    4.9667    1.0000 </r>
       <r>    5.0435    1.0000 </r>
       <r>    5.0435    1.0000 </r>
       <r>    5.4461    1.0000 </r>
       <r>    5.4461    1.0000 </r>
       <r>    5.8192    1.0000 </r>
       <r>    6.4882    1.0000 </r>
       <r>    7.1389    1.0000 </r>
       <r>    7.1389    1.0000 </r>
       <r>    7.5905    1.0000 </r>
       <r>    7.7001    1.0000 </r>
       <r>    7.9222    1.0000 </r>
       <r>    8.5490    1.0000 </r>
       <r>    9.2974    1.0000 </r>
       <r>    9.6566    1.0000 </r>
       <r>    9.6566    1.0000 </r>
       <r>    9.9141    1.0000 </r>
       <r>   10.1491    1.0000 </r>
       <r>   10.1491    1.0000 </r>
       <r>   10.4883    1.0000 </r>
       <r>   12.7935    0.0000 </r>
       <r>   12.7935    0.0000 </r>
       <r>   15.7959    0.0000 </r>
       <r>   18.2110    0.0000 </r>
       <r>   20.4390    0.0000 </r>
       <r>   21.1676    0.0000 </r>
       <r>   21.1676    0.0000 </r>
       <r>   23.1174    0.0000 </r>
       <r>   23.1174    0.0000 </r>
       <r>   25.4547    0.0000 </r>
       <r>   25.5286    0.0000 </r>
      </set>
      <set comment="kpoint 9">
       <r>    3.7324    1.0000 </r>
       <r>    4.7142    1.0000 </r>
       <r>    5.4328    1.0000 </r>
       <r>    5.7878    1.0000 </r>
       <r>    5.7973    1.0000 </r>
       <r>    6.0941    1.0000 </r>
       <r>    6.1507    1.0000 </r>
       <r>    6.1602    1.0000 </r>
       <r>    6.1869    1.0000 </r>
       <r>    6.8952    1.0000 </r>
       <r>    6.9015    1.0000 </r>
       <r>    7.3185    1.0000 </r>
       <r>    8.4398    1.0000 </r>
       <r>    8.5493    1.0000 </r>
       <r>    8.8860    1.0000 </r>
       <r>    9.0578    1.0000 </r>
       <r>    9.0687    1.0000 </r>
       <r>    9.2312    1.0000 </r>
       <r>   10.1599    1.0000 </r>
       <r>   10.2389    1.0000 </r>
       <r>   10.6439    1.0038 </r>
       <r>   11.5557   -0.0000 </r>
       <r>   13.9389    0.0000 </r>
       <r>   14.8121    0.0000 </r>
       <r>   19.9891    0.0000 </r>
       <r>   20.1637    0.0000 </r>
       <r>   20.3010    0.0000 </r>
       <r>   21.7073    0.0000 </r>
       <r>   22.8224    0.0000 </r>
       <r>   24.3077    0.0000 </r>
       <r>   24.9911    0.0000 </r>
       <r>   25.9028    0.0000 </r>
      </set>
      <set comment="kpoint 10">
       <r>    4.4928    1.0000 </r>
       <r>    5.2719    1.0000 </r>
       <r>    5.2719    1.0000 </r>
       <r>    5.4418    1.0000 </r>
       <r>    6.2259    1.0000 </r>
       <r>    6.2259    1.0000 </r>
       <r>    6.2772    1.0000 </r>
       <r>    6.4741    1.0000 </r>
       <r>    6.5678    1.0000 </r>
       <r>    6.5678    1.0000 </r>
       <r>    6.6389    1.0000 </r>
       <r>    7.0858    1.0000 </r>
       <r>    8.3021    1.0000 </r>
       <r>    8.5415    1.0000 </r>
       <r>    8.6042    1.0000 </r>
       <r>    8.6042    1.0000 </r>
       <r>    8.7200    1.0000 </r>
       <r>    9.3269    1.0000 </r>
       <r>    9.3269    1.0000 </r>
       <r>    9.6372    1.0000 </r>
       <r>   11.5928   -0.0000 </r>
       <r>   12.6316    0.0000 </r>
       <r>   12.6316    0.0000 </r>
       <r>   13.6250    0.0000 </r>
       <r>   20.4707    0.0000 </r>
       <r>   21.3223    0.0000 </r>
       <r>   21.3223    0.0000 </r>
       <r>   21.7289    0.0000 </r>
       <r>   22.6733    0.0000 </r>
       <r>   23.4702    0.0000 </r>
       <r>   23.4702    0.0000 </r>
       <r>   25.1994    0.0000 </r>
      </set>
      <set comment="kpoint 11">
       <r>    1.6080    1.0000 </r>
       <r>    4.4272    1.0000 </r>
       <r>    4.4272    1.0000 </r>
       <r>    4.4272    1.0000 </r>
       <r>    4.9365    1.0000 </r>
       <r>    4.9365    1.0000 </r>
       <r>    4.9365    1.0000 </r>
       <r>    6.9125    1.0000 </r>
       <r>    7.4564    1.0000 </r>
       <r>    7.4564    1.0000 </r>
       <r>    8.9768    1.0000 </r>
       <r>    8.9768    1.0000 </r>
       <r>    8.9768    1.0000 </r>
       <r>    9.1367    1.0000 </r>
       <r>    9.1367    1.0000 </r>
       <r>    9.9750    1.0000 </r>
       <r>    9.9750    1.0000 </r>
       <r>    9.9750    1.0000 </r>
       <r>   11.0862   -0.0000 </r>
       <r>   11.0862   -0.0000 </r>
       <r>   11.0862   -0.0000 </r>
       <r>   13.6761    0.0000 </r>
       <r>   13.6761    0.0000 </r>
       <r>   13.6761    0.0000 </r>
       <r>   19.3162    0.0000 </r>
       <r>   19.3162    0.0000 </r>
       <r>   19.3162    0.0000 </r>
       <r>   22.5204    0.0000 </r>
       <r>   22.5204    0.0000 </r>
       <r>   22.5205    0.0000 </r>
       <r>   23.6918    0.0000 </r>
       <r>   23.6919    0.0000 </r>
      </set>
      <set comment="kpoint 12">
       <r>    2.3056    1.0000 </r>
       <r>    4.5663    1.0000 </r>
       <r>    4.8207    1.0000 </r>
       <r>    4.8207    1.0000 </r>
       <r>    5.2437    1.0000 </r>
       <r>    5.4491    1.0000 </r>
       <r>    5.4491    1.0000 </r>
       <r>    6.6301    1.0000 </r>
       <r>    7.6322    1.0000 </r>
       <r>    7.6810    1.0000 </r>
       <r>    7.8643    1.0000 </r>
       <r>    7.8643    1.0000 </r>
       <r>    7.9696    1.0000 </r>
       <r>    8.8615    1.0000 </r>
       <r>    9.3309    1.0000 </r>
       <r>    9.4920    1.0000 </r>
       <r>    9.4975    1.0000 </r>
       <r>    9.4975    1.0000 </r>
       <r>   10.9023   -0.0001 </r>
       <r>   10.9297   -0.0000 </r>
       <r>   10.9297   -0.0000 </r>
       <r>   11.7810   -0.0000 </r>
       <r>   15.0592    0.0000 </r>
       <r>   15.0592    0.0000 </r>
       <r>   18.0474    0.0000 </r>
       <r>   18.0474    0.0000 </r>
       <r>   21.2201    0.0000 </r>
       <r>   22.3492    0.0000 </r>
       <r>   22.3492    0.0000 </r>
       <r>   24.2948    0.0000 </r>
       <r>   24.2949    0.0000 </r>
       <r>   25.0797    0.0000 </r>
      </set>
      <set comment="kpoint 13">
       <r>    3.3234    1.0000 </r>
       <r>    4.2781    1.0000 </r>
       <r>    5.4303    1.0000 </r>
       <r>    5.4303    1.0000 </r>
       <r>    5.6810    1.0000 </r>
       <r>    5.8950    1.0000 </r>
       <r>    5.8950    1.0000 </r>
       <r>    6.1683    1.0000 </r>
       <r>    6.9322    1.0000 </r>
       <r>    6.9322    1.0000 </r>
       <r>    7.3423    1.0000 </r>
       <r>    7.5175    1.0000 </r>
       <r>    8.0823    1.0000 </r>
       <r>    8.6525    1.0000 </r>
       <r>    8.9792    1.0000 </r>
       <r>    8.9792    1.0000 </r>
       <r>    9.1560    1.0000 </r>
       <r>    9.9833    1.0000 </r>
       <r>   10.2179    1.0000 </r>
       <r>   10.4966    1.0000 </r>
       <r>   10.7984   -0.0079 </r>
       <r>   10.7984   -0.0079 </r>
       <r>   16.1614    0.0000 </r>
       <r>   16.1614    0.0000 </r>
       <r>   17.2918    0.0000 </r>
       <r>   17.2918    0.0000 </r>
       <r>   22.1464    0.0000 </r>
       <r>   22.1464    0.0000 </r>
       <r>   23.2151    0.0000 </r>
       <r>   24.2408    0.0000 </r>
       <r>   24.2408    0.0000 </r>
       <r>   24.8056    0.0000 </r>
      </set>
      <set comment="kpoint 14">
       <r>    2.8810    1.0000 </r>
       <r>    4.8716    1.0000 </r>
       <r>    4.8716    1.0000 </r>
       <r>    4.9475    1.0000 </r>
       <r>    5.7816    1.0000 </r>
       <r>    5.7816    1.0000 </r>
       <r>    5.9069    1.0000 </r>
       <r>    6.6570    1.0000 </r>
       <r>    7.1838    1.0000 </r>
       <r>    7.1838    1.0000 </r>
       <r>    7.5618    1.0000 </r>
       <r>    7.5680    1.0000 </r>
       <r>    7.6867    1.0000 </r>
       <r>    8.9290    1.0000 </r>
       <r>    8.9602    1.0000 </r>
       <r>    8.9602    1.0000 </r>
       <r>    8.9623    1.0000 </r>
       <r>    9.8126    1.0000 </r>
       <r>   10.7318    0.8423 </r>
       <r>   10.7340    0.8150 </r>
       <r>   10.7340    0.8150 </r>
       <r>   12.9808    0.0000 </r>
       <r>   12.9808    0.0000 </r>
       <r>   16.1247    0.0000 </r>
       <r>   16.3236    0.0000 </r>
       <r>   19.4943    0.0000 </r>
       <r>   19.4943    0.0000 </r>
       <r>   22.6222    0.0000 </r>
       <r>   24.4156    0.0000 </r>
       <r>   24.7993    0.0000 </r>
       <r>   24.7993    0.0000 </r>
       <r>   25.5077    0.0000 </r>
      </set>
      <set comment="kpoint 15">
       <r>    3.7048    1.0000 </r>
       <r>    4.5084    1.0000 </r>
       <r>    5.2324    1.0000 </r>
       <r>    5.2630    1.0000 </r>
       <r>    6.1062    1.0000 </r>
       <r>    6.1072    1.0000 </r>
       <r>    6.2223    1.0000 </r>
       <r>    6.5053    1.0000 </r>
       <r>    6.8888    1.0000 </r>
       <r>    6.9327    1.0000 </r>
       <r>    7.2322    1.0000 </r>
       <r>    7.3115    1.0000 </r>
       <r>    7.8911    1.0000 </r>
       <r>    8.3429    1.0000 </r>
       <r>    8.5649    1.0000 </r>
       <r>    8.6448    1.0000 </r>
       <r>    9.2807    1.0000 </r>
       <r>   10.1088    1.0000 </r>
       <r>   10.4706    1.0000 </r>
       <r>   10.4731    1.0000 </r>
       <r>   10.5290    1.0000 </r>
       <r>   11.4637   -0.0000 </r>
       <r>   14.1257    0.0000 </r>
       <r>   15.1142    0.0000 </r>
       <r>   17.2081    0.0000 </r>
       <r>   18.2167    0.0000 </r>
       <r>   21.2390    0.0000 </r>
       <r>   22.9099    0.0000 </r>
       <r>   23.0829    0.0000 </r>
       <r>   23.9577    0.0000 </r>
       <r>   25.8146    0.0000 </r>
       <r>   26.4931    0.0000 </r>
      </set>
      <set comment="kpoint 16">
       <r>    4.2183    1.0000 </r>
       <r>    4.7661    1.0000 </r>
       <r>    4.7661    1.0000 </r>
       <r>    4.9935    1.0000 </r>
       <r>    6.4316    1.0000 </r>
       <r>    6.6358    1.0000 </r>
       <r>    6.6358    1.0000 </r>
       <r>    6.8191    1.0000 </r>
       <r>    6.9568    1.0000 </r>
       <r>    6.9568    1.0000 </r>
       <r>    7.1650    1.0000 </r>
       <r>    7.3526    1.0000 </r>
       <r>    7.8110    1.0000 </r>
       <r>    8.1256    1.0000 </r>
       <r>    8.1256    1.0000 </r>
       <r>    8.1508    1.0000 </r>
       <r>    9.3354    1.0000 </r>
       <r>    9.8894    1.0000 </r>
       <r>    9.8894    1.0000 </r>
       <r>   10.0545    1.0000 </r>
       <r>   11.4671   -0.0000 </r>
       <r>   12.5685    0.0000 </r>
       <r>   12.5685    0.0000 </r>
       <r>   13.6687    0.0000 </r>
       <r>   18.3221    0.0000 </r>
       <r>   19.6160    0.0000 </r>
       <r>   19.6160    0.0000 </r>
       <r>   21.1925    0.0000 </r>
       <r>   23.9589    0.0000 </r>
       <r>   25.1827    0.0000 </r>
       <r>   25.1827    0.0000 </r>
       <r>   26.2727    0.0000 </r>
      </set>
      <set comment="kpoint 17">
       <r>    3.2167    1.0000 </r>
       <r>    4.7392    1.0000 </r>
       <r>    4.7392    1.0000 </r>
       <r>    4.7392    1.0000 </r>
       <r>    6.2437    1.0000 </r>
       <r>    6.2437    1.0000 </r>
       <r>    6.2437    1.0000 </r>
       <r>    7.0636    1.0000 </r>
       <r>    7.3499    1.0000 </r>
       <r>    7.3499    1.0000 </r>
       <r>    7.3499    1.0000 </r>
       <r>    7.4902    1.0000 </r>
       <r>    7.4902    1.0000 </r>
       <r>    8.3205    1.0000 </r>
       <r>    8.3205    1.0000 </r>
       <r>    8.3205    1.0000 </r>
       <r>    9.6580    1.0000 </r>
       <r>    9.6580    1.0000 </r>
       <r>   10.9512   -0.0000 </r>
       <r>   10.9512   -0.0000 </r>
       <r>   10.9512   -0.0000 </r>
       <r>   13.5957    0.0000 </r>
       <r>   13.5957    0.0000 </r>
       <r>   13.5957    0.0000 </r>
       <r>   17.5794    0.0000 </r>
       <r>   17.5794    0.0000 </r>
       <r>   17.5794    0.0000 </r>
       <r>   22.6493    0.0000 </r>
       <r>   25.3053    0.0000 </r>
       <r>   25.3053    0.0000 </r>
       <r>   25.3053    0.0000 </r>
       <r>   26.7812    0.0000 </r>
      </set>
      <set comment="kpoint 18">
       <r>    3.7102    1.0000 </r>
       <r>    4.2697    1.0000 </r>
       <r>    4.7084    1.0000 </r>
       <r>    4.7084    1.0000 </r>
       <r>    6.3898    1.0000 </r>
       <r>    6.3898    1.0000 </r>
       <r>    6.7924    1.0000 </r>
       <r>    7.2575    1.0000 </r>
       <r>    7.2919    1.0000 </r>
       <r>    7.3289    1.0000 </r>
       <r>    7.5293    1.0000 </r>
       <r>    7.7158    1.0000 </r>
       <r>    7.7158    1.0000 </r>
       <r>    7.8182    1.0000 </r>
       <r>    8.0297    1.0000 </r>
       <r>    8.0297    1.0000 </r>
       <r>   10.0584    1.0000 </r>
       <r>   10.3356    1.0000 </r>
       <r>   10.7378    0.7642 </r>
       <r>   10.7378    0.7642 </r>
       <r>   10.8157   -0.0355 </r>
       <r>   11.4705   -0.0000 </r>
       <r>   14.3033    0.0000 </r>
       <r>   14.3033    0.0000 </r>
       <r>   16.3637    0.0000 </r>
       <r>   16.3637    0.0000 </r>
       <r>   19.2373    0.0000 </r>
       <r>   20.9557    0.0000 </r>
       <r>   25.6432    0.0000 </r>
       <r>   25.6434    0.0000 </r>
       <r>   26.3664    0.0000 </r>
       <r>   26.4429    0.0000 </r>
      </set>
      <set comment="kpoint 19">
       <r>    3.8636    1.0000 </r>
       <r>    4.2055    1.0000 </r>
       <r>    4.2055    1.0000 </r>
       <r>    4.3499    1.0000 </r>
       <r>    6.6900    1.0000 </r>
       <r>    6.8300    1.0000 </r>
       <r>    6.8300    1.0000 </r>
       <r>    7.1743    1.0000 </r>
       <r>    7.3671    1.0000 </r>
       <r>    7.5555    1.0000 </r>
       <r>    7.5555    1.0000 </r>
       <r>    7.6140    1.0000 </r>
       <r>    8.1401    1.0000 </r>
       <r>    8.1657    1.0000 </r>
       <r>    8.1657    1.0000 </r>
       <r>    8.3422    1.0000 </r>
       <r>   10.1020    1.0000 </r>
       <r>   10.5875    1.0000 </r>
       <r>   10.5875    1.0000 </r>
       <r>   10.6159    1.0003 </r>
       <r>   11.0905   -0.0000 </r>
       <r>   12.3166    0.0000 </r>
       <r>   12.3166    0.0000 </r>
       <r>   13.3709    0.0000 </r>
       <r>   16.5133    0.0000 </r>
       <r>   17.6416    0.0000 </r>
       <r>   17.6416    0.0000 </r>
       <r>   19.2007    0.0000 </r>
       <r>   25.6713    0.0000 </r>
       <r>   25.8407    0.0000 </r>
       <r>   25.8729    0.0000 </r>
       <r>   25.8729    0.0000 </r>
      </set>
      <set comment="kpoint 20">
       <r>    3.7397    1.0000 </r>
       <r>    3.9054    1.0000 </r>
       <r>    3.9054    1.0000 </r>
       <r>    3.9054    1.0000 </r>
       <r>    6.9975    1.0000 </r>
       <r>    6.9975    1.0000 </r>
       <r>    6.9975    1.0000 </r>
       <r>    7.1773    1.0000 </r>
       <r>    7.1773    1.0000 </r>
       <r>    7.2649    1.0000 </r>
       <r>    7.2649    1.0000 </r>
       <r>    7.2649    1.0000 </r>
       <r>    9.2789    1.0000 </r>
       <r>    9.2789    1.0000 </r>
       <r>    9.2789    1.0000 </r>
       <r>    9.5218    1.0000 </r>
       <r>   10.6760    1.0245 </r>
       <r>   10.6760    1.0245 </r>
       <r>   10.8687   -0.0029 </r>
       <r>   10.8687   -0.0029 </r>
       <r>   10.8687   -0.0029 </r>
       <r>   11.9076   -0.0000 </r>
       <r>   11.9076   -0.0000 </r>
       <r>   11.9076   -0.0000 </r>
       <r>   16.5308    0.0000 </r>
       <r>   16.5308    0.0000 </r>
       <r>   16.5308    0.0000 </r>
       <r>   17.5975    0.0000 </r>
       <r>   25.2271    0.0000 </r>
       <r>   25.3009    0.0000 </r>
       <r>   25.3009    0.0000 </r>
       <r>   25.3009    0.0000 </r>
      </set>
     </set>
    </set>
   </array>
  </eigenvalues>
  <separator name="orbital magnetization" >
   <v name="MAGDIPOLOUT">      0.00000000      0.00000000      0.00000000</v>
  </separator>
  <dos>
   <i name="efermi">     10.75440444 </i>
   <total>
    <array>
     <dimension dim="1">gridpoints</dimension>
     <dimension dim="2">spin</dimension>
     <field>energy</field>
     <field>total</field>
     <field>integrated</field>
     <set>
      <set comment="spin 1">
       <r>    -0.4809     0.0000     0.0000 </r>
       <r>    -0.3857     0.0000     0.0000 </r>
       <r>    -0.2905     0.0000     0.0000 </r>
       <r>    -0.1953     0.0000     0.0000 </r>
       <r>    -0.1001     0.0000     0.0000 </r>
       <r>    -0.0049     0.0000     0.0000 </r>
       <r>     0.0903     0.0000     0.0000 </r>
       <r>     0.1855     0.0000     0.0000 </r>
       <r>     0.2807     0.0000     0.0000 </r>
       <r>     0.3759    -0.0000    -0.0000 </r>
       <r>     0.4711    -0.0000    -0.0000 </r>
       <r>     0.5663    -0.0000    -0.0000 </r>
       <r>     0.6615    -0.0000    -0.0000 </r>
       <r>     0.7567    -0.0011    -0.0001 </r>
       <r>     0.8519     0.0304     0.0028 </r>
       <r>     0.9471     0.0013     0.0029 </r>
       <r>     1.0423     0.0008     0.0030 </r>
       <r>     1.1375     0.1888     0.0210 </r>
       <r>     1.2327    -0.0075     0.0202 </r>
       <r>     1.3279     0.1102     0.0307 </r>
       <r>     1.4231     0.2666     0.0561 </r>
       <r>     1.5183    -0.0160     0.0546 </r>
       <r>     1.6135     0.2331     0.0768 </r>
       <r>     1.7087     0.0205     0.0787 </r>
       <r>     1.8039    -0.0006     0.0787 </r>
       <r>     1.8991     0.1896     0.0967 </r>
       <r>     1.9943    -0.0206     0.0948 </r>
       <r>     2.0895     0.5340     0.1456 </r>
       <r>     2.1847     0.2114     0.1657 </r>
       <r>     2.2799     0.3786     0.2018 </r>
       <r>     2.3751     0.3687     0.2369 </r>
       <r>     2.4703    -0.0077     0.2362 </r>
       <r>     2.5655    -0.0000     0.2362 </r>
       <r>     2.6607    -0.0105     0.2351 </r>
       <r>     2.7559     0.3062     0.2643 </r>
       <r>     2.8511     0.4593     0.3080 </r>
       <r>     2.9463     0.4260     0.3486 </r>
       <r>     3.0415     0.1051     0.3586 </r>
       <r>     3.1367     0.2010     0.3777 </r>
       <r>     3.2319     0.7787     0.4519 </r>
       <r>     3.3271     0.7149     0.5199 </r>
       <r>     3.4223     0.0209     0.5219 </r>
       <r>     3.5175    -0.0012     0.5218 </r>
       <r>     3.6127    -0.0318     0.5188 </r>
       <r>     3.7079     2.9982     0.8042 </r>
       <r>     3.8031     0.8979     0.8897 </r>
       <r>     3.8983     0.8690     0.9724 </r>
       <r>     3.9935     0.2893     1.0000 </r>
       <r>     4.0887     0.2924     1.0278 </r>
       <r>     4.1839     3.7758     1.3873 </r>
       <r>     4.2791     2.6965     1.6440 </r>
       <r>     4.3743     1.2855     1.7664 </r>
       <r>     4.4695     2.4483     1.9994 </r>
       <r>     4.5647     0.9773     2.0925 </r>
       <r>     4.6599     4.2161     2.4939 </r>
       <r>     4.7551     4.9726     2.9673 </r>
       <r>     4.8503     2.7015     3.2244 </r>
       <r>     4.9455     2.1908     3.4330 </r>
       <r>     5.0407     0.8119     3.5103 </r>
       <r>     5.1360     2.2114     3.7208 </r>
       <r>     5.2312     3.9873     4.1004 </r>
       <r>     5.3264     3.7850     4.4608 </r>
       <r>     5.4216     3.6057     4.8040 </r>
       <r>     5.5168    -0.1040     4.7941 </r>
       <r>     5.6120     0.6668     4.8576 </r>
       <r>     5.7072     2.8058     5.1247 </r>
       <r>     5.8024     2.1611     5.3305 </r>
       <r>     5.8976     2.7276     5.5901 </r>
       <r>     5.9928     2.8351     5.8600 </r>
       <r>     6.0880     4.5350     6.2918 </r>
       <r>     6.1832     3.2175     6.5981 </r>
       <r>     6.2784     1.2271     6.7149 </r>
       <r>     6.3736     1.6277     6.8699 </r>
       <r>     6.4688     3.0807     7.1632 </r>
       <r>     6.5640     3.8620     7.5308 </r>
       <r>     6.6592     1.4789     7.6716 </r>
       <r>     6.7544     2.9058     7.9483 </r>
       <r>     6.8496     6.7307     8.5890 </r>
       <r>     6.9448     2.9562     8.8705 </r>
       <r>     7.0400     2.1842     9.0784 </r>
       <r>     7.1352     4.7525     9.5309 </r>
       <r>     7.2304     5.7444    10.0777 </r>
       <r>     7.3256     3.1493    10.3776 </r>
       <r>     7.4208     3.7470    10.7343 </r>
       <r>     7.5160     4.8021    11.1914 </r>
       <r>     7.6112     3.6894    11.5427 </r>
       <r>     7.7064     2.6805    11.7979 </r>
       <r>     7.8016     3.2725    12.1094 </r>
       <r>     7.8968     2.6325    12.3600 </r>
       <r>     7.9920     2.8648    12.6328 </r>
       <r>     8.0872     2.2088    12.8430 </r>
       <r>     8.1824     2.8820    13.1174 </r>
       <r>     8.2776     3.9687    13.4952 </r>
       <r>     8.3728     1.3820    13.6268 </r>
       <r>     8.4680     3.6414    13.9735 </r>
       <r>     8.5632     3.6086    14.3170 </r>
       <r>     8.6584     0.1468    14.3310 </r>
       <r>     8.7536     1.5231    14.4760 </r>
       <r>     8.8488     4.8796    14.9405 </r>
       <r>     8.9440     3.4823    15.2721 </r>
       <r>     9.0392     1.8189    15.4452 </r>
       <r>     9.1344     3.5526    15.7834 </r>
       <r>     9.2296     4.3162    16.1943 </r>
       <r>     9.3248     1.8982    16.3751 </r>
       <r>     9.4200     2.6124    16.6238 </r>
       <r>     9.5152     2.1496    16.8284 </r>
       <r>     9.6104     0.7153    16.8965 </r>
       <r>     9.7056     1.7404    17.0622 </r>
       <r>     9.8008     2.9463    17.3427 </r>
       <r>     9.8960     2.0358    17.5365 </r>
       <r>     9.9912     4.8903    18.0021 </r>
       <r>    10.0864     2.6639    18.2557 </r>
       <r>    10.1816     1.4686    18.3955 </r>
       <r>    10.2768     0.3553    18.4293 </r>
       <r>    10.3720     6.5087    19.0489 </r>
       <r>    10.4672     3.1565    19.3494 </r>
       <r>    10.5624     2.9461    19.6299 </r>
       <r>    10.6576     3.9827    20.0091 </r>
       <r>    10.7528     2.4735    20.2445 </r>
       <r>    10.8480     5.6475    20.7822 </r>
       <r>    10.9432     1.3862    20.9142 </r>
       <r>    11.0384     0.3405    20.9466 </r>
       <r>    11.1336     0.6992    21.0131 </r>
       <r>    11.2288     0.5447    21.0650 </r>
       <r>    11.3240     2.5298    21.3058 </r>
       <r>    11.4192     2.0740    21.5033 </r>
       <r>    11.5144     0.4207    21.5433 </r>
       <r>    11.6096    -0.0330    21.5402 </r>
       <r>    11.7048     0.7535    21.6119 </r>
       <r>    11.8000     0.2803    21.6386 </r>
       <r>    11.8953     0.4699    21.6833 </r>
       <r>    11.9905    -0.0119    21.6822 </r>
       <r>    12.0857    -0.0055    21.6817 </r>
       <r>    12.1809     0.3717    21.7171 </r>
       <r>    12.2761     1.1382    21.8254 </r>
       <r>    12.3713    -0.0879    21.8171 </r>
       <r>    12.4665     1.5631    21.9659 </r>
       <r>    12.5617     0.7554    22.0378 </r>
       <r>    12.6569     0.2807    22.0645 </r>
       <r>    12.7521     0.4712    22.1094 </r>
       <r>    12.8473     1.0186    22.2063 </r>
       <r>    12.9425     1.2369    22.3241 </r>
       <r>    13.0377    -0.0356    22.3207 </r>
       <r>    13.1329    -0.0001    22.3207 </r>
       <r>    13.2281    -0.0168    22.3191 </r>
       <r>    13.3233     0.7631    22.3917 </r>
       <r>    13.4185    -0.0386    22.3881 </r>
       <r>    13.5137     0.8479    22.4688 </r>
       <r>    13.6089     1.6779    22.6285 </r>
       <r>    13.7041     0.0744    22.6356 </r>
       <r>    13.7993     0.0835    22.6435 </r>
       <r>    13.8945     0.6627    22.7066 </r>
       <r>    13.9897     0.4400    22.7485 </r>
       <r>    14.0849     1.4351    22.8851 </r>
       <r>    14.1801    -0.0057    22.8846 </r>
       <r>    14.2753     1.4779    23.0253 </r>
       <r>    14.3705    -0.0592    23.0197 </r>
       <r>    14.4657     0.3729    23.0552 </r>
       <r>    14.5609     0.3778    23.0911 </r>
       <r>    14.6561    -0.0335    23.0880 </r>
       <r>    14.7513     0.7026    23.1548 </r>
       <r>    14.8465     0.0848    23.1629 </r>
       <r>    14.9417     0.5466    23.2150 </r>
       <r>    15.0369     2.2816    23.4322 </r>
       <r>    15.1321     0.4607    23.4760 </r>
       <r>    15.2273    -0.0084    23.4752 </r>
       <r>    15.3225    -0.0000    23.4752 </r>
       <r>    15.4177    -0.0000    23.4752 </r>
[...]
        <r>  0.0004  0.0108  0.2040 </r>
       </set>
       <set comment="band 8">
        <r>  0.0036  0.0039  0.2196 </r>
        <r>  0.0036  0.0039  0.2196 </r>
        <r>  0.0036  0.0039  0.2196 </r>
        <r>  0.0036  0.0039  0.2196 </r>
       </set>
       <set comment="band 9">
        <r>  0.0166  0.0333  0.1563 </r>
        <r>  0.0166  0.0333  0.1563 </r>
        <r>  0.0166  0.0333  0.1563 </r>
        <r>  0.0166  0.0333  0.1563 </r>
       </set>
       <set comment="band 10">
        <r>  0.0166  0.0413  0.1396 </r>
        <r>  0.0166  0.0413  0.1396 </r>
        <r>  0.0166  0.0413  0.1396 </r>
        <r>  0.0166  0.0413  0.1396 </r>
       </set>
       <set comment="band 11">
        <r>  0.0000  0.0011  0.2299 </r>
        <r>  0.0000  0.0011  0.2299 </r>
        <r>  0.0000  0.0011  0.2299 </r>
        <r>  0.0000  0.0011  0.2299 </r>
       </set>
       <set comment="band 12">
        <r>  0.0035  0.0231  0.2949 </r>
        <r>  0.0002  0.0598  0.0314 </r>
        <r>  0.0002  0.0598  0.0314 </r>
        <r>  0.0035  0.0231  0.2949 </r>
       </set>
       <set comment="band 13">
        <r>  0.0002  0.0598  0.0314 </r>
        <r>  0.0035  0.0231  0.2949 </r>
        <r>  0.0035  0.0231  0.2949 </r>
        <r>  0.0002  0.0598  0.0314 </r>
       </set>
       <set comment="band 14">
        <r>  0.0000  0.0020  0.2285 </r>
        <r>  0.0000  0.0020  0.2285 </r>
        <r>  0.0000  0.0020  0.2285 </r>
        <r>  0.0000  0.0020  0.2285 </r>
       </set>
       <set comment="band 15">
        <r>  0.0002  0.0067  0.2635 </r>
        <r>  0.0001  0.0051  0.1800 </r>
        <r>  0.0001  0.0051  0.1800 </r>
        <r>  0.0002  0.0067  0.2635 </r>
       </set>
       <set comment="band 16">
        <r>  0.0001  0.0051  0.1800 </r>
        <r>  0.0002  0.0067  0.2635 </r>
        <r>  0.0002  0.0067  0.2635 </r>
        <r>  0.0001  0.0051  0.1800 </r>
       </set>
       <set comment="band 17">
        <r>  0.0063  0.0102  0.2142 </r>
        <r>  0.0063  0.0102  0.2142 </r>
        <r>  0.0063  0.0102  0.2142 </r>
        <r>  0.0063  0.0102  0.2142 </r>
       </set>
       <set comment="band 18">
        <r>  0.0000  0.0007  0.2396 </r>
        <r>  0.0000  0.0007  0.2396 </r>
        <r>  0.0000  0.0007  0.2396 </r>
        <r>  0.0000  0.0007  0.2396 </r>
       </set>
       <set comment="band 19">
        <r>  0.0002  0.0003  0.1499 </r>
        <r>  0.0011  0.0002  0.3309 </r>
        <r>  0.0011  0.0002  0.3309 </r>
        <r>  0.0002  0.0003  0.1499 </r>
       </set>
       <set comment="band 20">
        <r>  0.0011  0.0002  0.3309 </r>
        <r>  0.0002  0.0003  0.1499 </r>
        <r>  0.0002  0.0003  0.1499 </r>
        <r>  0.0011  0.0002  0.3309 </r>
       </set>
       <set comment="band 21">
        <r>  0.0000  0.0003  0.2427 </r>
        <r>  0.0000  0.0003  0.2427 </r>
        <r>  0.0000  0.0003  0.2427 </r>
        <r>  0.0000  0.0003  0.2427 </r>
       </set>
       <set comment="band 22">
        <r>  0.0184  0.0351  0.1632 </r>
        <r>  0.0184  0.0351  0.1632 </r>
        <r>  0.0184  0.0351  0.1632 </r>
        <r>  0.0184  0.0351  0.1632 </r>
       </set>
       <set comment="band 23">
        <r>  0.0037  0.1010  0.0991 </r>
        <r>  0.0111  0.0623  0.1096 </r>
        <r>  0.0111  0.0623  0.1096 </r>
        <r>  0.0037  0.1010  0.0991 </r>
       </set>
       <set comment="band 24">
        <r>  0.0111  0.0623  0.1096 </r>
        <r>  0.0037  0.1010  0.0991 </r>
        <r>  0.0037  0.1010  0.0991 </r>
        <r>  0.0111  0.0623  0.1096 </r>
       </set>
       <set comment="band 25">
        <r>  0.2174  0.0139  0.0561 </r>
        <r>  0.0058  0.0135  0.1031 </r>
        <r>  0.0058  0.0135  0.1031 </r>
        <r>  0.2174  0.0139  0.0561 </r>
       </set>
       <set comment="band 26">
        <r>  0.0058  0.0135  0.1031 </r>
        <r>  0.2174  0.0139  0.0561 </r>
        <r>  0.2174  0.0139  0.0561 </r>
        <r>  0.0058  0.0135  0.1031 </r>
       </set>
       <set comment="band 27">
        <r>  0.0692  0.0542  0.0587 </r>
        <r>  0.0692  0.0542  0.0587 </r>
        <r>  0.0692  0.0542  0.0587 </r>
        <r>  0.0692  0.0542  0.0587 </r>
       </set>
       <set comment="band 28">
        <r>  0.0540  0.0568  0.0569 </r>
        <r>  0.0540  0.0568  0.0569 </r>
        <r>  0.0540  0.0568  0.0569 </r>
        <r>  0.0540  0.0568  0.0569 </r>
       </set>
       <set comment="band 29">
        <r>  0.0105  0.0738  0.0371 </r>
        <r>  0.0012  0.0306  0.0553 </r>
        <r>  0.0012  0.0306  0.0553 </r>
        <r>  0.0105  0.0737  0.0371 </r>
       </set>
       <set comment="band 30">
        <r>  0.0012  0.0307  0.0552 </r>
        <r>  0.0106  0.0735  0.0371 </r>
        <r>  0.0103  0.0738  0.0370 </r>
        <r>  0.0012  0.0305  0.0553 </r>
       </set>
       <set comment="band 31">
        <r>  0.0016  0.0106  0.0370 </r>
        <r>  0.0002  0.0166  0.0090 </r>
        <r>  0.0005  0.0166  0.0070 </r>
        <r>  0.0023  0.0065  0.0354 </r>
       </set>
       <set comment="band 32">
        <r>  0.0041  0.0624  0.0189 </r>
        <r>  0.0023  0.0067  0.0303 </r>
        <r>  0.0002  0.0225  0.0346 </r>
        <r>  0.0052  0.0526  0.0173 </r>
       </set>
      </set>
      <set comment="kpoint 19">
       <set comment="band 1">
        <r>  0.0674  0.0069  0.1233 </r>
        <r>  0.0674  0.0069  0.1233 </r>
        <r>  0.0674  0.0069  0.1233 </r>
        <r>  0.0674  0.0069  0.1233 </r>
       </set>
       <set comment="band 2">
        <r>  0.0031  0.0091  0.1847 </r>
        <r>  0.0031  0.0091  0.1847 </r>
        <r>  0.0996  0.0040  0.1058 </r>
        <r>  0.0996  0.0040  0.1058 </r>
       </set>
       <set comment="band 3">
        <r>  0.0996  0.0040  0.1058 </r>
        <r>  0.0996  0.0040  0.1058 </r>
        <r>  0.0031  0.0091  0.1847 </r>
        <r>  0.0031  0.0091  0.1847 </r>
       </set>
       <set comment="band 4">
        <r>  0.0446  0.0064  0.1548 </r>
        <r>  0.0446  0.0064  0.1548 </r>
        <r>  0.0446  0.0064  0.1548 </r>
        <r>  0.0446  0.0064  0.1548 </r>
       </set>
       <set comment="band 5">
        <r>  0.0001  0.0041  0.2163 </r>
        <r>  0.0001  0.0041  0.2163 </r>
        <r>  0.0001  0.0041  0.2163 </r>
        <r>  0.0001  0.0041  0.2163 </r>
       </set>
       <set comment="band 6">
        <r>  0.0000  0.0021  0.2744 </r>
        <r>  0.0000  0.0021  0.2744 </r>
        <r>  0.0000  0.0030  0.1663 </r>
        <r>  0.0000  0.0030  0.1663 </r>
       </set>
       <set comment="band 7">
        <r>  0.0000  0.0030  0.1663 </r>
        <r>  0.0000  0.0030  0.1663 </r>
        <r>  0.0000  0.0021  0.2744 </r>
        <r>  0.0000  0.0021  0.2744 </r>
       </set>
       <set comment="band 8">
        <r>  0.0001  0.0009  0.2277 </r>
        <r>  0.0001  0.0009  0.2277 </r>
        <r>  0.0001  0.0009  0.2277 </r>
        <r>  0.0001  0.0009  0.2277 </r>
       </set>
       <set comment="band 9">
        <r>  0.0000  0.0001  0.2301 </r>
        <r>  0.0000  0.0001  0.2301 </r>
        <r>  0.0000  0.0001  0.2301 </r>
        <r>  0.0000  0.0001  0.2301 </r>
       </set>
       <set comment="band 10">
        <r>  0.0000  0.0008  0.2411 </r>
        <r>  0.0000  0.0008  0.2411 </r>
        <r>  0.0001  0.0029  0.2139 </r>
        <r>  0.0001  0.0029  0.2139 </r>
       </set>
       <set comment="band 11">
        <r>  0.0001  0.0029  0.2139 </r>
        <r>  0.0001  0.0029  0.2139 </r>
        <r>  0.0000  0.0008  0.2411 </r>
        <r>  0.0000  0.0008  0.2411 </r>
       </set>
       <set comment="band 12">
        <r>  0.0000  0.0012  0.2284 </r>
        <r>  0.0000  0.0012  0.2284 </r>
        <r>  0.0000  0.0012  0.2284 </r>
        <r>  0.0000  0.0012  0.2284 </r>
       </set>
       <set comment="band 13">
        <r>  0.0208  0.0669  0.0964 </r>
        <r>  0.0208  0.0669  0.0964 </r>
        <r>  0.0208  0.0669  0.0964 </r>
        <r>  0.0208  0.0669  0.0964 </r>
       </set>
       <set comment="band 14">
        <r>  0.0018  0.0718  0.1077 </r>
        <r>  0.0018  0.0718  0.1077 </r>
        <r>  0.0154  0.0405  0.1531 </r>
        <r>  0.0154  0.0405  0.1531 </r>
       </set>
       <set comment="band 15">
        <r>  0.0154  0.0405  0.1531 </r>
        <r>  0.0154  0.0405  0.1531 </r>
        <r>  0.0018  0.0718  0.1077 </r>
        <r>  0.0018  0.0718  0.1077 </r>
       </set>
       <set comment="band 16">
        <r>  0.0004  0.0576  0.1397 </r>
        <r>  0.0004  0.0576  0.1397 </r>
        <r>  0.0004  0.0576  0.1397 </r>
        <r>  0.0004  0.0576  0.1397 </r>
       </set>
       <set comment="band 17">
        <r>  0.0000  0.0007  0.2375 </r>
        <r>  0.0000  0.0007  0.2375 </r>
        <r>  0.0000  0.0007  0.2375 </r>
        <r>  0.0000  0.0007  0.2375 </r>
       </set>
       <set comment="band 18">
        <r>  0.0001  0.0027  0.2410 </r>
        <r>  0.0001  0.0027  0.2410 </r>
        <r>  0.0001  0.0027  0.2324 </r>
        <r>  0.0001  0.0027  0.2324 </r>
       </set>
       <set comment="band 19">
        <r>  0.0001  0.0027  0.2324 </r>
        <r>  0.0001  0.0027  0.2324 </r>
        <r>  0.0001  0.0027  0.2410 </r>
        <r>  0.0001  0.0027  0.2410 </r>
       </set>
       <set comment="band 20">
        <r>  0.0000  0.0002  0.2408 </r>
        <r>  0.0000  0.0002  0.2408 </r>
        <r>  0.0000  0.0002  0.2408 </r>
        <r>  0.0000  0.0002  0.2408 </r>
       </set>
       <set comment="band 21">
        <r>  0.0082  0.0138  0.2105 </r>
        <r>  0.0082  0.0138  0.2105 </r>
        <r>  0.0082  0.0138  0.2105 </r>
        <r>  0.0082  0.0138  0.2105 </r>
       </set>
       <set comment="band 22">
        <r>  0.0288  0.0281  0.2531 </r>
        <r>  0.0288  0.0281  0.2531 </r>
        <r>  0.0044  0.0596  0.0524 </r>
        <r>  0.0044  0.0596  0.0524 </r>
       </set>
       <set comment="band 23">
        <r>  0.0044  0.0596  0.0524 </r>
        <r>  0.0044  0.0596  0.0524 </r>
        <r>  0.0288  0.0281  0.2531 </r>
        <r>  0.0288  0.0281  0.2531 </r>
       </set>
       <set comment="band 24">
        <r>  0.0102  0.0710  0.1156 </r>
        <r>  0.0102  0.0710  0.1156 </r>
        <r>  0.0102  0.0710  0.1156 </r>
        <r>  0.0102  0.0710  0.1156 </r>
       </set>
       <set comment="band 25">
        <r>  0.1083  0.0120  0.0911 </r>
        <r>  0.1083  0.0120  0.0911 </r>
        <r>  0.1083  0.0120  0.0911 </r>
        <r>  0.1083  0.0120  0.0911 </r>
       </set>
       <set comment="band 26">
        <r>  0.0444  0.0358  0.0928 </r>
        <r>  0.0444  0.0358  0.0928 </r>
        <r>  0.1321  0.0324  0.0591 </r>
        <r>  0.1321  0.0324  0.0591 </r>
       </set>
       <set comment="band 27">
        <r>  0.1321  0.0324  0.0591 </r>
        <r>  0.1321  0.0324  0.0591 </r>
        <r>  0.0444  0.0358  0.0928 </r>
        <r>  0.0444  0.0358  0.0928 </r>
       </set>
       <set comment="band 28">
        <r>  0.0710  0.0473  0.0682 </r>
        <r>  0.0710  0.0473  0.0682 </r>
        <r>  0.0710  0.0473  0.0682 </r>
        <r>  0.0710  0.0473  0.0682 </r>
       </set>
       <set comment="band 29">
        <r>  0.0015  0.0268  0.0314 </r>
        <r>  0.0015  0.0268  0.0314 </r>
        <r>  0.0015  0.0268  0.0314 </r>
        <r>  0.0015  0.0268  0.0314 </r>
       </set>
       <set comment="band 30">
        <r>  0.0003  0.0083  0.0118 </r>
        <r>  0.0002  0.0084  0.0118 </r>
        <r>  0.0003  0.0083  0.0118 </r>
        <r>  0.0003  0.0083  0.0118 </r>
       </set>
       <set comment="band 31">
        <r>  0.0000  0.0173  0.0215 </r>
        <r>  0.0000  0.0173  0.0215 </r>
        <r>  0.0000  0.0039  0.0195 </r>
        <r>  0.0000  0.0039  0.0195 </r>
       </set>
       <set comment="band 32">
        <r>  0.0000  0.0039  0.0195 </r>
        <r>  0.0000  0.0039  0.0195 </r>
        <r>  0.0000  0.0175  0.0216 </r>
        <r>  0.0000  0.0173  0.0215 </r>
       </set>
      </set>
      <set comment="kpoint 20">
       <set comment="band 1">
        <r>  0.0589  0.0016  0.1420 </r>
        <r>  0.0589  0.0016  0.1420 </r>
        <r>  0.0589  0.0016  0.1420 </r>
        <r>  0.0589  0.0016  0.1420 </r>
       </set>
       <set comment="band 2">
        <r>  0.0046  0.0011  0.2011 </r>
        <r>  0.1228  0.0031  0.0761 </r>
        <r>  0.0689  0.0022  0.1331 </r>
        <r>  0.0102  0.0012  0.1952 </r>
       </set>
       <set comment="band 3">
        <r>  0.0342  0.0016  0.1698 </r>
        <r>  0.0175  0.0013  0.1875 </r>
        <r>  0.0857  0.0025  0.1153 </r>
        <r>  0.0691  0.0022  0.1329 </r>
       </set>
       <set comment="band 4">
        <r>  0.1160  0.0030  0.0832 </r>
        <r>  0.0146  0.0013  0.1905 </r>
        <r>  0.0003  0.0010  0.2057 </r>
        <r>  0.0756  0.0023  0.1260 </r>
       </set>
       <set comment="band 5">
        <r>  0.0000  0.0005  0.2238 </r>
        <r>  0.0000  0.0011  0.2280 </r>
        <r>  0.0000  0.0014  0.2300 </r>
        <r>  0.0000  0.0004  0.2232 </r>
       </set>
       <set comment="band 6">
        <r>  0.0000  0.0013  0.2292 </r>
        <r>  0.0000  0.0005  0.2234 </r>
        <r>  0.0000  0.0006  0.2241 </r>
        <r>  0.0000  0.0011  0.2283 </r>
       </set>
       <set comment="band 7">
        <r>  0.0000  0.0008  0.2257 </r>
        <r>  0.0000  0.0010  0.2274 </r>
        <r>  0.0000  0.0006  0.2247 </r>
        <r>  0.0000  0.0010  0.2272 </r>
       </set>
       <set comment="band 8">
        <r>  0.0000  0.0000  0.2300 </r>
        <r>  0.0000  0.0000  0.2300 </r>
        <r>  0.0000  0.0000  0.2300 </r>
        <r>  0.0000  0.0000  0.2300 </r>
       </set>
       <set comment="band 9">
        <r>  0.0000  0.0000  0.2300 </r>
        <r>  0.0000  0.0000  0.2300 </r>
        <r>  0.0000  0.0000  0.2300 </r>
        <r>  0.0000  0.0000  0.2300 </r>
       </set>
       <set comment="band 10">
        <r>  0.0000  0.0004  0.2127 </r>
        <r>  0.0000  0.0006  0.3029 </r>
        <r>  0.0000  0.0005  0.2723 </r>
        <r>  0.0000  0.0002  0.1295 </r>
       </set>
       <set comment="band 11">
        <r>  0.0000  0.0005  0.2575 </r>
        <r>  0.0000  0.0002  0.1034 </r>
        <r>  0.0000  0.0006  0.3373 </r>
        <r>  0.0000  0.0004  0.2192 </r>
       </set>
       <set comment="band 12">
        <r>  0.0000  0.0004  0.2178 </r>
        <r>  0.0000  0.0005  0.2818 </r>
        <r>  0.0000  0.0001  0.0784 </r>
        <r>  0.0000  0.0006  0.3394 </r>
       </set>
       <set comment="band 13">
        <r>  0.0005  0.0888  0.0878 </r>
        <r>  0.0011  0.0806  0.1015 </r>
        <r>  0.0035  0.0451  0.1607 </r>
        <r>  0.0014  0.0763  0.1087 </r>
       </set>
       <set comment="band 14">
        <r>  0.0037  0.0413  0.1670 </r>
        <r>  0.0001  0.0951  0.0773 </r>
        <r>  0.0003  0.0916  0.0831 </r>
        <r>  0.0023  0.0627  0.1314 </r>
       </set>
       <set comment="band 15">
        <r>  0.0006  0.0879  0.0892 </r>
        <r>  0.0037  0.0424  0.1652 </r>
        <r>  0.0010  0.0813  0.1003 </r>
        <r>  0.0012  0.0791  0.1040 </r>
       </set>
       <set comment="band 16">
        <r>  0.0178  0.1119  0.0292 </r>
        <r>  0.0178  0.1119  0.0292 </r>
        <r>  0.0178  0.1119  0.0292 </r>
        <r>  0.0178  0.1119  0.0292 </r>
       </set>
       <set comment="band 17">
        <r>  0.0000  0.0003  0.2415 </r>
        <r>  0.0000  0.0003  0.2415 </r>
        <r>  0.0000  0.0003  0.2415 </r>
        <r>  0.0000  0.0003  0.2415 </r>
       </set>
       <set comment="band 18">
        <r>  0.0000  0.0003  0.2415 </r>
        <r>  0.0000  0.0003  0.2415 </r>
        <r>  0.0000  0.0003  0.2415 </r>
        <r>  0.0000  0.0003  0.2415 </r>
       </set>
       <set comment="band 19">
        <r>  0.0000  0.0000  0.1913 </r>
        <r>  0.0000  0.0000  0.2195 </r>
        <r>  0.0000  0.0000  0.2771 </r>
        <r>  0.0000  0.0000  0.2845 </r>
       </set>
       <set comment="band 20">
        <r>  0.0000  0.0000  0.1998 </r>
        <r>  0.0000  0.0000  0.3458 </r>
        <r>  0.0000  0.0000  0.3243 </r>
        <r>  0.0000  0.0000  0.1024 </r>
       </set>
       <set comment="band 21">
        <r>  0.0000  0.0000  0.3381 </r>
        <r>  0.0000  0.0000  0.1639 </r>
        <r>  0.0000  0.0000  0.1279 </r>
        <r>  0.0000  0.0000  0.3424 </r>
       </set>
       <set comment="band 22">
        <r>  0.0013  0.0728  0.1195 </r>
        <r>  0.0031  0.0481  0.1644 </r>
        <r>  0.0008  0.0784  0.1093 </r>
        <r>  0.0023  0.0595  0.1436 </r>
       </set>
       <set comment="band 23">
        <r>  0.0002  0.0870  0.0935 </r>
        <r>  0.0015  0.0690  0.1263 </r>
        <r>  0.0048  0.0269  0.2030 </r>
        <r>  0.0010  0.0758  0.1139 </r>
       </set>
       <set comment="band 24">
        <r>  0.0042  0.0343  0.1896 </r>
        <r>  0.0009  0.0769  0.1119 </r>
        <r>  0.0000  0.0888  0.0903 </r>
        <r>  0.0023  0.0587  0.1450 </r>
       </set>
       <set comment="band 25">
        <r>  0.0815  0.0051  0.1088 </r>
        <r>  0.1530  0.0050  0.0867 </r>
        <r>  0.1942  0.0050  0.0740 </r>
        <r>  0.0234  0.0052  0.1267 </r>
       </set>
       <set comment="band 26">
        <r>  0.0537  0.0052  0.1173 </r>
        <r>  0.0706  0.0051  0.1121 </r>
        <r>  0.1093  0.0051  0.1002 </r>
        <r>  0.2184  0.0050  0.0665 </r>
       </set>
       <set comment="band 27">
        <r>  0.2038  0.0050  0.0710 </r>
        <r>  0.1155  0.0051  0.0983 </r>
        <r>  0.0355  0.0052  0.1230 </r>
        <r>  0.0973  0.0051  0.1039 </r>
       </set>
       <set comment="band 28">
        <r>  0.0928  0.0261  0.0861 </r>
        <r>  0.0928  0.0261  0.0861 </r>
        <r>  0.0928  0.0261  0.0861 </r>
        <r>  0.0928  0.0261  0.0861 </r>
       </set>
       <set comment="band 29">
        <r>  0.0002  0.0062  0.0020 </r>
        <r>  0.0002  0.0062  0.0020 </r>
        <r>  0.0002  0.0062  0.0020 </r>
        <r>  0.0002  0.0062  0.0020 </r>
       </set>
       <set comment="band 30">
        <r>  0.0001  0.0050  0.0057 </r>
        <r>  0.0000  0.0069  0.0057 </r>
        <r>  0.0001  0.0033  0.0058 </r>
        <r>  0.0000  0.0082  0.0056 </r>
       </set>
       <set comment="band 31">
        <r>  0.0000  0.0077  0.0056 </r>
        <r>  0.0000  0.0086  0.0056 </r>
        <r>  0.0000  0.0061  0.0057 </r>
        <r>  0.0001  0.0010  0.0059 </r>
       </set>
       <set comment="band 32">
        <r>  0.0001  0.0048  0.0058 </r>
        <r>  0.0001  0.0020  0.0059 </r>
        <r>  0.0000  0.0082  0.0056 </r>
        <r>  0.0000  0.0083  0.0056 </r>
       </set>
      </set>
     </set>
    </set>
   </array>
  </projected>
 </calculation>
 <structure name="finalpos" >
  <crystal>
   <varray name="basis" >
    <v>       3.95886423       0.00000000       0.00000000 </v>
    <v>       0.00000000       3.95886423       0.00000000 </v>
    <v>       0.00000000       0.00000000       3.95886423 </v>
   </varray>
   <i name="volume">     62.04571919 </i>
   <varray name="rec_basis" >
    <v>       0.25259770       0.00000000       0.00000000 </v>
    <v>       0.00000000       0.25259770       0.00000000 </v>
    <v>       0.00000000       0.00000000       0.25259770 </v>
   </varray>
  </crystal>
  <varray name="positions" >
   <v>       0.00000000       0.00000000       0.00000000 </v>
   <v>       0.50000000       0.50000000       0.00000000 </v>
   <v>       0.50000000       0.00000000       0.50000000 </v>
   <v>       0.00000000       0.50000000       0.50000000 </v>
  </varray>
  <varray name="selective"  type="logical" >
   <v type="logical" >  T  T  T </v>
   <v type="logical" >  T  T  T </v>
   <v type="logical" >  T  T  T </v>
   <v type="logical" >  T  T  T </v>
  </varray>
  <nose>
   <v>      -3.00000000       0.00000000       0.00010000       0.00010000 </v>
  </nose>
 </structure>
</modeling>
