
     Program PWSCF v.6.7MaX starts on 12Jun2023 at 18:22: 6 

     This program is part of the open-source Quantum ESPRESSO suite
     for quantum simulation of materials; please cite
         "P. Giannozzi et al., J. Phys.:Condens. Matter 21 395502 (2009);
         "P. Giannozzi et al., J. Phys.:Condens. Matter 29 465901 (2017);
          URL http://www.quantum-espresso.org", 
     in publications or presentations arising from this work. More details at
     http://www.quantum-espresso.org/quote

     Parallel version (MPI), running on     6 processors

     MPI processes distributed on     1 nodes
     R & G space division:  proc/nbgrp/npool/nimage =       6
     Waiting for input...
     Reading input from standard input

     Current dimensions of program PWSCF are:
     Max number of different atomic species (ntypx) = 10
     Max number of k-points (npk) =  40000
     Max angular momentum in pseudopotentials (lmaxx) =  3
     file Al.pbe-n-kjpaw_psl.1.0.0.UPF: wavefunction(s)  3S 3P renormalized

     Subspace diagonalization in iterative solution of the eigenvalue problem:
     one sub-group per band group will be used
     scalapack distributed-memory algorithm (size of sub-group:  2*  2 procs)

     Found symmetry operation: I + ( -0.5000  0.0000  0.0000)
     This is a supercell, fractional translations are disabled
     Message from routine setup:
     using ibrav=0 with symmetry is DISCOURAGED, use correct ibrav instead

     Parallelization info
     --------------------
     sticks:   dense  smooth     PW     G-vecs:    dense   smooth      PW
     Min         324     159     46                21440     7557    1160
     Max         325     160     48                21447     7568    1162
     Sum        1945     955    283               128655    45353    6967



     bravais-lattice index     =            0
     lattice parameter (alat)  =      10.8235  a.u.
     unit-cell volume          =    2046.9050 (a.u.)^3
     number of atoms/cell      =           12
     number of atomic types    =            1
     number of electrons       =        36.00
     number of Kohn-Sham states=           22
     kinetic-energy cutoff     =      30.0000  Ry
     charge density cutoff     =     240.0000  Ry
     scf convergence threshold =      1.0E-04
     mixing beta               =       0.7000
     number of iterations used =            8  plain     mixing
     energy convergence thresh.=      1.0E-04
     force convergence thresh. =      1.0E-01
     Exchange-correlation= SLA  PW   PBX  PBC
                           (   1   4   3   4   0   0   0)
     nstep                     =           50


     celldm(1)=  10.823529  celldm(2)=   0.000000  celldm(3)=   0.000000
     celldm(4)=   0.000000  celldm(5)=   0.000000  celldm(6)=   0.000000

     crystal axes: (cart. coord. in units of alat)
               a(1) = (   1.000000   0.000000   0.000000 )  
               a(2) = (   0.500000   0.866025   0.000000 )  
               a(3) = (   0.000000   0.000000   1.864062 )  

     reciprocal axes: (cart. coord. in units 2 pi/alat)
               b(1) = (  1.000000 -0.577350  0.000000 )  
               b(2) = (  0.000000  1.154701  0.000000 )  
               b(3) = (  0.000000  0.000000  0.536463 )  


     PseudoPot. # 1 for Al read from file:
     /home/mini21k/QE/Potential/Al.pbe-n-kjpaw_psl.1.0.0.UPF
     MD5 check sum: cfc449ca30b5f3223ec38ddd88ac046d
     Pseudo is Projector augmented-wave + core cor, Zval =  3.0
     Generated using "atomic" code by A. Dal Corso  v.5.1
     Shape of augmentation charge: PSQ
     Using radial grid of 1135 points,  6 beta functions with: 
                l(1) =   0
                l(2) =   0
                l(3) =   1
                l(4) =   1
                l(5) =   2
                l(6) =   2
     Q(r) pseudized with 0 coefficients 


     atomic species   valence    mass     pseudopotential
        Al             3.00    26.98154     Al( 1.00)

      6 Sym. Ops. (no inversion) found



   Cartesian axes

     site n.     atom                  positions (alat units)
         1           Al  tau(   1) = (   0.2500000   0.1443376   0.0000000  )
         2           Al  tau(   2) = (   0.7500001   0.1443376   0.0000000  )
         3           Al  tau(   3) = (   0.4999999   0.5773502   0.0000000  )
         4           Al  tau(   4) = (   1.0000000   0.5773502   0.0000000  )
         5           Al  tau(   5) = (   0.0000000   0.2886752   0.4082484  )
         6           Al  tau(   6) = (   0.4999999   0.2886752   0.4082484  )
         7           Al  tau(   7) = (   0.2500000   0.7216878   0.4082484  )
         8           Al  tau(   8) = (   0.7500001   0.7216878   0.4082484  )
         9           Al  tau(   9) = (   0.0000000   0.0000000   0.8164965  )
        10           Al  tau(  10) = (   0.4999999   0.0000000   0.8164965  )
        11           Al  tau(  11) = (   0.2500000   0.4330126   0.8164965  )
        12           Al  tau(  12) = (   0.7500001   0.4330126   0.8164965  )

     number of k points=     3  Gaussian smearing, width (Ry)=  0.0030
                       cart. coord. in units 2pi/alat
        k(    1) = (   0.0000000   0.0000000   0.0000000), wk =   0.2222222
        k(    2) = (   0.0000000   0.3849002   0.0000000), wk =   1.3333333
        k(    3) = (   0.3333333  -0.5773503   0.0000000), wk =   0.4444444

     Dense  grid:   128655 G-vectors     FFT dimensions: (  54,  54, 100)

     Smooth grid:    45353 G-vectors     FFT dimensions: (  40,  40,  72)

     Estimated max dynamical RAM per process >      90.04 MB

     Estimated total dynamical RAM >     540.26 MB

     Initial potential from superposition of free atoms

     starting charge   35.97252, renormalised to   36.00000
     Starting wfcs are   48 randomized atomic wfcs
     Checking if some PAW data can be deallocated... 

     total cpu time spent up to now is        1.0 secs

     Self-consistent Calculation

     iteration #  1     ecut=    30.00 Ry     beta= 0.70
     Davidson diagonalization with overlap
     ethr =  1.00E-02,  avg # of iterations =  3.0

     total cpu time spent up to now is        2.1 secs

     total energy              =    -473.47732009 Ry
     estimated scf accuracy    <       0.57520016 Ry

     iteration #  2     ecut=    30.00 Ry     beta= 0.70
     Davidson diagonalization with overlap
     ethr =  1.60E-03,  avg # of iterations =  5.0

     total cpu time spent up to now is        3.4 secs

     total energy              =    -473.01816426 Ry
     estimated scf accuracy    <       5.90257148 Ry

     iteration #  3     ecut=    30.00 Ry     beta= 0.70
     Davidson diagonalization with overlap
     ethr =  1.60E-03,  avg # of iterations =  5.0

     total cpu time spent up to now is        4.5 secs

     total energy              =    -473.80647227 Ry
     estimated scf accuracy    <       0.01961758 Ry

     iteration #  4     ecut=    30.00 Ry     beta= 0.70
     Davidson diagonalization with overlap
     ethr =  5.45E-05,  avg # of iterations =  6.0

     total cpu time spent up to now is        5.7 secs

     total energy              =    -473.81663464 Ry
     estimated scf accuracy    <       0.02943543 Ry

     iteration #  5     ecut=    30.00 Ry     beta= 0.70
     Davidson diagonalization with overlap
     ethr =  5.45E-05,  avg # of iterations =  2.0

     total cpu time spent up to now is        6.8 secs

     total energy              =    -473.82006040 Ry
     estimated scf accuracy    <       0.00085163 Ry

     iteration #  6     ecut=    30.00 Ry     beta= 0.70
     Davidson diagonalization with overlap
     ethr =  2.37E-06,  avg # of iterations =  7.3

     total cpu time spent up to now is        8.0 secs

     total energy              =    -473.82042064 Ry
     estimated scf accuracy    <       0.00226170 Ry

     iteration #  7     ecut=    30.00 Ry     beta= 0.70
     Davidson diagonalization with overlap
     ethr =  2.37E-06,  avg # of iterations =  2.0

     total cpu time spent up to now is        9.0 secs

     total energy              =    -473.82053649 Ry
     estimated scf accuracy    <       0.00036288 Ry

     iteration #  8     ecut=    30.00 Ry     beta= 0.70
     Davidson diagonalization with overlap
     ethr =  1.01E-06,  avg # of iterations =  2.0

     total cpu time spent up to now is       10.0 secs

     End of self-consistent calculation

          k = 0.0000 0.0000 0.0000 (  5687 PWs)   bands (ev):

    -6.5912  -4.8190  -2.2864  -0.7532  -0.7532  -0.7525  -0.6899  -0.6893
    -0.6893   0.7466   0.7473   0.7473   0.9351   1.2776   1.2776   1.2782
     3.4803   3.4803   3.4808   3.6923   3.6926   3.6926

          k = 0.0000 0.3849 0.0000 (  5680 PWs)   bands (ev):

    -5.9259  -4.1588  -3.9489  -2.1988  -2.0005  -2.0004  -1.6282  -0.2756
    -0.2755   0.3074   1.5617   1.6686   1.6686   2.3625   2.3626   3.3227
     3.6202   3.6203   3.8637   4.6501   5.1521   5.1522

          k = 0.3333-0.5774 0.0000 (  5670 PWs)   bands (ev):

    -4.6051  -4.6046  -4.6044  -2.8489  -2.8485  -2.8482  -0.3285  -0.3282
    -0.3279   1.1339   1.1340   1.2520   2.3748   2.8048   2.8053   2.8055
     3.1417   3.1444   5.4918   5.4945   5.7396   5.8364

     the Fermi energy is     3.6558 ev

!    total energy              =    -473.82049410 Ry

     total all-electron energy =     -5827.533873 Ry
     estimated scf accuracy    <       0.00007726 Ry
     smearing contrib. (-TS)   =      -0.00130741 Ry
     internal energy E=F+TS    =    -473.81918669 Ry

     The total energy is F=E-TS. E is the sum of the following terms:
     one-electron contribution =     -29.90620063 Ry
     hartree contribution      =      28.76025795 Ry
     xc contribution           =     -30.43793894 Ry
     ewald contribution        =     -26.08802853 Ry
     one-center paw contrib.   =    -416.14727653 Ry

     convergence has been achieved in   8 iterations

     Forces acting on atoms (cartesian axes, Ry/au):

     atom    1 type  1   force =    -0.00006273   -0.00003622    0.00037336
     atom    2 type  1   force =     0.00006273   -0.00003622    0.00037336
     atom    3 type  1   force =     0.00000000    0.00007243    0.00037336
     atom    4 type  1   force =     0.00000000    0.00000000    0.00040856
     atom    5 type  1   force =     0.00000000    0.00002767    0.00002035
     atom    6 type  1   force =     0.00000000    0.00000000    0.00012587
     atom    7 type  1   force =    -0.00002396   -0.00001383    0.00002035
     atom    8 type  1   force =     0.00002396   -0.00001383    0.00002035
     atom    9 type  1   force =     0.00000000    0.00000000   -0.00042650
     atom   10 type  1   force =     0.00000000    0.00000928   -0.00042969
     atom   11 type  1   force =     0.00000804   -0.00000464   -0.00042969
     atom   12 type  1   force =    -0.00000804   -0.00000464   -0.00042969

     Total force =     0.000869     Total SCF correction =     0.009407
     SCF correction compared to forces is large: reduce conv_thr to get better values

     BFGS Geometry Optimization
     Energy error            =      0.0E+00
     Gradient error          =      4.3E-04

     bfgs converged in   1 scf cycles and   0 bfgs steps
     (criteria: energy <  1.0E-04 Ry, force <  1.0E-01 Ry/Bohr)

     End of BFGS Geometry Optimization

     Final energy   =    -473.8204940979 Ry
Begin final coordinates

ATOMIC_POSITIONS (angstrom)
Al            1.4318910000        0.8267030000        0.0000000000    0   0   0
Al            4.2956740000        0.8267030000        0.0000000000    0   0   0
Al            2.8637820000        3.3068110000        0.0000000000    0   0   0
Al            5.7275650000        3.3068110000        0.0000000000    0   0   0
Al            0.0000000000        1.6534060000        2.3382690000
Al            2.8637820000        1.6534060000        2.3382690000
Al            1.4318910000        4.1335140000        2.3382690000
Al            4.2956740000        4.1335140000        2.3382690000
Al            0.0000000000        0.0000000000        4.6765370000
Al            2.8637820000        0.0000000000        4.6765370000
Al            1.4318910000        2.4801080000        4.6765370000
Al            4.2956740000        2.4801080000        4.6765370000
End final coordinates



     Writing output data file ./output/pwscf.save/

     init_run     :      0.92s CPU      0.95s WALL (       1 calls)
     electrons    :      8.62s CPU      8.95s WALL (       1 calls)
     forces       :      0.69s CPU      0.71s WALL (       1 calls)

     Called by init_run:
     wfcinit      :      0.27s CPU      0.27s WALL (       1 calls)
     potinit      :      0.31s CPU      0.32s WALL (       1 calls)
     hinit0       :      0.16s CPU      0.16s WALL (       1 calls)

     Called by electrons:
     c_bands      :      3.49s CPU      3.49s WALL (       8 calls)
     sum_band     :      1.76s CPU      1.86s WALL (       8 calls)
     v_of_rho     :      0.24s CPU      0.25s WALL (       9 calls)
     newd         :      1.29s CPU      1.53s WALL (       9 calls)
     PAW_pot      :      2.19s CPU      2.19s WALL (       9 calls)
     mix_rho      :      0.03s CPU      0.03s WALL (       8 calls)

     Called by c_bands:
     init_us_2    :      0.06s CPU      0.06s WALL (      54 calls)
     cegterg      :      3.26s CPU      3.26s WALL (      24 calls)

     Called by *egterg:
     cdiaghg      :      0.09s CPU      0.09s WALL (     121 calls)
     h_psi        :      2.01s CPU      2.01s WALL (     124 calls)
     s_psi        :      0.53s CPU      0.53s WALL (     124 calls)
     g_psi        :      0.01s CPU      0.01s WALL (      97 calls)

     Called by h_psi:
     h_psi:calbec :      0.75s CPU      0.75s WALL (     124 calls)
     vloc_psi     :      0.69s CPU      0.69s WALL (     124 calls)
     add_vuspsi   :      0.57s CPU      0.57s WALL (     124 calls)

     General routines
     calbec       :      1.07s CPU      1.07s WALL (     160 calls)
     fft          :      0.16s CPU      0.16s WALL (     126 calls)
     ffts         :      0.01s CPU      0.01s WALL (      17 calls)
     fftw         :      0.70s CPU      0.70s WALL (    4012 calls)
     interpolate  :      0.02s CPU      0.02s WALL (       9 calls)

     Parallel routines
     fft_scatt_xy :      0.09s CPU      0.09s WALL (    4155 calls)
     fft_scatt_yz :      0.37s CPU      0.37s WALL (    4155 calls)

     PWSCF        :     10.33s CPU     10.72s WALL


   This run was terminated on:  18:22:16  12Jun2023            

=------------------------------------------------------------------------------=
   JOB DONE.
=------------------------------------------------------------------------------=
