
     Program PWSCF v.7.2 starts on 11Jun2023 at  7:39:46 

     This program is part of the open-source Quantum ESPRESSO suite
     for quantum simulation of materials; please cite
         "P. Giannozzi et al., J. Phys.:Condens. Matter 21 395502 (2009);
         "P. Giannozzi et al., J. Phys.:Condens. Matter 29 465901 (2017);
         "P. Giannozzi et al., J. Chem. Phys. 152 154105 (2020);
          URL http://www.quantum-espresso.org", 
     in publications or presentations arising from this work. More details at
     http://www.quantum-espresso.org/quote

     Parallel version (MPI), running on     8 processors

     MPI processes distributed on     1 nodes
     15316 MiB available memory on the printing compute node when the environment starts

     Waiting for input...
     Reading input from standard input
Warning: card &CELL ignored
Warning: card / ignored

     Current dimensions of program PWSCF are:
     Max number of different atomic species (ntypx) = 10
     Max number of k-points (npk) =  40000
     Max angular momentum in pseudopotentials (lmaxx) =  4

     Atomic positions and unit cell read from directory:
     ./Pt.save/

     file Pt.pbe-n-kjpaw_psl.1.0.0.UPF: wavefunction(s)  6S 5D renormalized
     Found identity + (  0.0000 -0.5000 -0.5000) symmetry
     This is a supercell, fractional translations are disabled
     Message from routine setup:
     using ibrav=0 with symmetry is DISCOURAGED, use correct ibrav instead

     R & G space division:  proc/nbgrp/npool/nimage =       8
     Subspace diagonalization in iterative solution of the eigenvalue problem:
     a serial algorithm will be used


     Parallelization info
     --------------------
     sticks:   dense  smooth     PW     G-vecs:    dense   smooth      PW
     Min          54      54     17                  888      888     163
     Max          55      55     19                  893      893     166
     Sum         437     437    145                 7123     7123    1309

     Using Slab Decomposition


     Title: 
     Pt                                                                         


     bravais-lattice index     =            0
     lattice parameter (alat)  =       7.5200  a.u.
     unit-cell volume          =     425.2524 (a.u.)^3
     number of atoms/cell      =            4
     number of atomic types    =            1
     number of electrons       =        40.00
     number of Kohn-Sham states=           24
     kinetic-energy cutoff     =      25.0000  Ry
     charge density cutoff     =     100.0000  Ry
     Exchange-correlation= SLA  PW   PBX  PBC
                           (   1   4   3   4   0   0   0)

     celldm(1)=   7.519961  celldm(2)=   0.000000  celldm(3)=   0.000000
     celldm(4)=   0.000000  celldm(5)=   0.000000  celldm(6)=   0.000000

     crystal axes: (cart. coord. in units of alat)
               a(1) = (   1.000000   0.000000   0.000000 )  
               a(2) = (   0.000000   1.000000   0.000000 )  
               a(3) = (   0.000000   0.000000   1.000000 )  

     reciprocal axes: (cart. coord. in units 2 pi/alat)
               b(1) = (  1.000000  0.000000  0.000000 )  
               b(2) = (  0.000000  1.000000  0.000000 )  
               b(3) = (  0.000000  0.000000  1.000000 )  


     PseudoPot. # 1 for Pt read from file:
     /home/hham/.pseudopot/Pt.pbe-n-kjpaw_psl.1.0.0.UPF
     MD5 check sum: 2c88029be45ba2aaa78ebf6465986627
     Pseudo is Projector augmented-wave + core cor, Zval = 10.0
     Generated using "atomic" code by A. Dal Corso  v.5.1.2
     Shape of augmentation charge: PSQ
     Using radial grid of 1277 points,  6 beta functions with: 
                l(1) =   0
                l(2) =   0
                l(3) =   1
                l(4) =   1
                l(5) =   2
                l(6) =   2
     Q(r) pseudized with 0 coefficients 


     atomic species   valence    mass     pseudopotential
        Pt            10.00   195.08400     Pt( 1.00)

     Starting magnetic structure 
     atomic species   magnetization
        Pt           1.000

     48 Sym. Ops., with inversion, found



   Cartesian axes

     site n.     atom                  positions (alat units)
         1           Pt  tau(   1) = (   0.0000000   0.0000000   0.0000000  )
         2           Pt  tau(   2) = (   0.0000000   0.5000000   0.5000000  )
         3           Pt  tau(   3) = (   0.5000000   0.0000000   0.5000000  )
         4           Pt  tau(   4) = (   0.5000000   0.5000000   0.0000000  )

     number of k points=    20  Methfessel-Paxton smearing, width (Ry)=  0.0100
                       cart. coord. in units 2pi/alat
        k(    1) = (   0.0000000   0.0000000   0.0000000), wk =   0.0029155
        k(    2) = (   0.0000000   0.0000000   0.1428571), wk =   0.0174927
        k(    3) = (   0.0000000   0.0000000   0.2857143), wk =   0.0174927
        k(    4) = (   0.0000000   0.0000000   0.4285714), wk =   0.0174927
        k(    5) = (   0.0000000   0.1428571   0.1428571), wk =   0.0349854
        k(    6) = (   0.0000000   0.1428571   0.2857143), wk =   0.0699708
        k(    7) = (   0.0000000   0.1428571   0.4285714), wk =   0.0699708
        k(    8) = (   0.0000000   0.2857143   0.2857143), wk =   0.0349854
        k(    9) = (   0.0000000   0.2857143   0.4285714), wk =   0.0699708
        k(   10) = (   0.0000000   0.4285714   0.4285714), wk =   0.0349854
        k(   11) = (   0.1428571   0.1428571   0.1428571), wk =   0.0233236
        k(   12) = (   0.1428571   0.1428571   0.2857143), wk =   0.0699708
        k(   13) = (   0.1428571   0.1428571   0.4285714), wk =   0.0699708
        k(   14) = (   0.1428571   0.2857143   0.2857143), wk =   0.0699708
        k(   15) = (   0.1428571   0.2857143   0.4285714), wk =   0.1399417
        k(   16) = (   0.1428571   0.4285714   0.4285714), wk =   0.0699708
        k(   17) = (   0.2857143   0.2857143   0.2857143), wk =   0.0233236
        k(   18) = (   0.2857143   0.2857143   0.4285714), wk =   0.0699708
        k(   19) = (   0.2857143   0.4285714   0.4285714), wk =   0.0699708
        k(   20) = (   0.4285714   0.4285714   0.4285714), wk =   0.0233236

     Dense  grid:     7123 G-vectors     FFT dimensions: (  24,  24,  24)

     Estimated max dynamical RAM per process >       3.91 MB

     Estimated total dynamical RAM >      31.28 MB
     Generating pointlists ...
     new r_m :   0.2917 (alat units)  2.1934 (a.u.) for type    1

     The potential is recalculated from file :
     ./Pt.save/charge-density

     Starting wfcs are   36 randomized atomic wfcs
     Checking if some PAW data can be deallocated... 

     Band Structure Calculation
     Davidson diagonalization with overlap

     ethr =  2.50E-09,  avg # of iterations = 42.0

     total cpu time spent up to now is        4.4 secs

     End of band structure calculation

 ------ SPIN UP ------------


          k = 0.0000 0.0000 0.0000 (   895 PWs)   bands (ev):

     6.8936  10.0237  10.0245  10.0245  10.4533  10.4533  10.4533  13.0838
    13.0838  13.0838  15.0777  15.0777  16.5951  16.5962  16.5962  17.0502
    17.0502  17.0502  17.0518  17.0518  17.0518  18.5395  18.5395  18.5395

          k = 0.0000 0.0000 0.1429 (   896 PWs)   bands (ev):

     7.1551  10.1140  10.2126  10.2132  10.5597  10.6133  10.6133  12.9201
    13.2173  13.2173  14.8970  15.1459  15.8390  15.8390  16.3234  16.3242
    16.5122  16.7327  16.7327  17.0510  17.0526  17.2806  19.9006  19.9006

          k = 0.0000 0.0000 0.2857 (   896 PWs)   bands (ev):

     7.9058  10.2598  10.7154  10.7161  10.8685  11.0900  11.0900  12.4868
    13.6111  13.6111  14.2961  14.2961  14.4304  15.2463  15.3395  15.6158
    15.6166  15.9648  15.9648  16.2834  17.0525  17.0541  21.8662  21.8662

          k = 0.0000 0.0000 0.4286 (   880 PWs)   bands (ev):

     9.0012   9.9924  11.2574  11.2585  11.3425  11.8769  11.8769  11.9164
    12.9544  12.9544  13.9310  13.9750  14.2432  14.2432  14.8935  14.8946
    15.0634  15.0634  15.6294  15.9657  17.0542  17.0558  23.5666  23.5675

          k = 0.0000 0.1429 0.1429 (   897 PWs)   bands (ev):

     7.4077  10.3077  10.3082  10.3457  10.7140  10.7140  10.8045  12.8538
    13.2681  13.3123  14.8561  15.1231  15.3051  15.3062  15.3101  16.1042
    16.3212  16.3216  16.7321  16.7323  16.8466  18.7489  18.7495  20.7882

          k = 0.0000 0.1429 0.2857 (   889 PWs)   bands (ev):

     8.1333  10.4649  10.7453  10.8306  11.0034  11.1726  11.3100  12.4991
    13.5492  13.6194  13.8489  14.1308  14.2317  14.5252  15.3621  15.5073
    15.6987  15.9600  15.9617  16.7282  16.7401  17.2175  20.3666  22.5223

          k = 0.0000 0.1429 0.4286 (   897 PWs)   bands (ev):

     9.1976  10.1889  11.3276  11.4111  11.4474  11.8975  11.9207  11.9800
    12.6509  12.9296  13.4676  13.5417  14.2414  14.5439  14.8983  14.9994
    15.0587  15.2101  15.7843  16.3398  16.7211  16.7231  21.5852  22.3295

          k = 0.0000 0.2857 0.2857 (   886 PWs)   bands (ev):

     8.7834  10.9500  11.0341  11.0344  11.4037  11.4040  11.7796  12.4130
    13.0643  13.0654  13.4789  13.6047  13.7923  14.4202  15.1519  15.5045
    15.5047  15.7363  15.9525  15.9531  16.2753  18.5766  18.5776  21.6775

          k = 0.0000 0.2857 0.4286 (   897 PWs)   bands (ev):

     9.7403  10.7089  11.4000  11.7458  11.7600  12.0348  12.1078  12.1099
    12.1233  12.8225  12.8232  13.2261  14.2974  14.4234  14.7552  14.9232
    14.9340  15.0665  15.9626  16.0369  16.4441  17.3385  19.7254  20.6448

          k = 0.0000 0.4286 0.4286 (   898 PWs)   bands (ev):

    10.4873  11.2483  11.2489  11.4063  12.1626  12.1635  12.2126  12.4321
    12.5117  12.5125  12.5664  13.0087  14.1849  14.4192  14.4813  14.4824
    14.5697  15.1578  15.1590  15.4577  17.3707  18.4003  18.4015  19.4131

          k = 0.1429 0.1429 0.1429 (   904 PWs)   bands (ev):

     7.6476  10.4310  10.4317  10.4317  10.9098  10.9100  10.9100  12.8174
    13.3370  13.3370  14.8601  14.8601  14.8611  14.9827  14.9827  15.7981
    15.7991  15.7991  16.8491  16.8502  16.8502  19.4950  19.4950  19.4955

          k = 0.1429 0.1429 0.2857 (   895 PWs)   bands (ev):

     8.3343  10.5641  10.8107  10.8112  11.2114  11.4140  11.4144  12.5491
    13.5138  13.5583  13.7694  13.7698  13.8822  14.7201  15.1728  15.3266
    15.3431  15.3441  16.6802  16.7004  16.7015  17.5961  20.8535  20.8537

          k = 0.1429 0.1429 0.4286 (   899 PWs)   bands (ev):

     9.3379  10.2801  11.4036  11.4043  11.6355  11.8506  11.8514  12.1054
    12.8546  12.8554  13.2604  13.4181  13.9525  14.5109  14.8463  14.8475
    15.0072  15.8009  16.0504  16.2935  16.5752  16.5765  21.9610  21.9613

          k = 0.1429 0.2857 0.2857 (   894 PWs)   bands (ev):

     8.9017  10.8558  10.8561  10.9282  11.7424  11.7428  11.8679  12.5821
    13.1060  13.1070  13.4554  13.4713  13.5674  14.7905  14.8166  14.8188
    14.8188  15.6376  16.5115  16.5196  16.5200  18.7719  18.7727  21.8971

          k = 0.1429 0.2857 0.4286 (   898 PWs)   bands (ev):

     9.7131  10.5017  11.2014  11.2323  12.0655  12.0665  12.1709  12.4398
    12.8152  12.8551  13.1492  13.2173  13.7708  14.2147  14.4386  14.5163
    15.1261  15.9285  16.2648  16.2658  16.3321  17.2538  19.9174  20.9476

          k = 0.1429 0.4286 0.4286 (   895 PWs)   bands (ev):

    10.2155  10.7488  10.7490  10.9678  12.3771  12.5690  12.5697  12.7438
    12.8912  12.8917  13.0906  13.2761  13.6984  14.0084  14.0086  14.0337
    15.1734  15.7087  15.7092  15.8635  17.2494  18.3458  18.3469  19.4645

          k = 0.2857 0.2857 0.2857 (   895 PWs)   bands (ev):

     9.2333  10.7214  10.7218  10.7218  12.1981  12.1990  12.1990  12.9928
    13.2656  13.2656  13.2669  13.3782  13.3782  14.1945  14.1955  14.1955
    15.4871  15.4871  16.7225  16.7237  16.7237  19.3999  19.3999  19.4003

          k = 0.2857 0.2857 0.4286 (   915 PWs)   bands (ev):

     9.7175  10.2630  10.6895  10.6898  12.3352  12.3359  12.7261  13.1585
    13.2134  13.2629  13.4183  13.6266  13.6273  13.7026  13.9142  13.9152
    15.8845  16.1369  16.5190  16.5199  16.5945  17.2882  20.1302  20.1304

          k = 0.2857 0.4286 0.4286 (   905 PWs)   bands (ev):

     9.8663  10.1988  10.1988  10.3396  12.6195  12.7521  12.7527  13.0773
    13.2636  13.4488  13.4490  13.5068  14.0734  14.0827  14.0827  14.2510
    15.9121  16.3785  16.3789  16.4024  16.8837  18.1249  18.1257  19.2040

          k = 0.4286 0.4286 0.4286 (   916 PWs)   bands (ev):

     9.7440   9.9052   9.9052   9.9052  12.9080  12.9081  12.9081  13.0779
    13.0779  13.1634  13.1643  13.1643  15.1842  15.1842  15.1843  15.4773
    16.4601  16.4601  16.6417  16.6428  16.6428  17.7539  17.7539  17.7540

 ------ SPIN DOWN ----------


          k = 0.0000 0.0000 0.0000 (   895 PWs)   bands (ev):

     6.9122  10.1068  10.1076  10.1076  10.5445  10.5445  10.5445  13.1971
    13.1971  13.1971  15.2149  15.2149  16.7423  16.7434  16.7434  17.1892
    17.1892  17.1892  17.1909  17.1909  17.1909  18.5428  18.5428  18.5428

          k = 0.0000 0.0000 0.1429 (   896 PWs)   bands (ev):

     7.1736  10.1947  10.2966  10.2972  10.6517  10.7044  10.7044  13.0316
    13.3310  13.3310  15.0322  15.2835  15.9376  15.9376  16.4666  16.4673
    16.6588  16.8678  16.8678  17.1901  17.1917  17.3028  19.9434  19.9434

          k = 0.0000 0.0000 0.2857 (   896 PWs)   bands (ev):

     7.9246  10.3287  10.8019  10.8026  10.9625  11.1807  11.1807  12.5939
    13.7260  13.7260  14.3870  14.3870  14.5595  15.2963  15.4783  15.7489
    15.7498  16.0924  16.0924  16.4283  17.1916  17.1932  21.9142  21.9142

          k = 0.0000 0.0000 0.4286 (   880 PWs)   bands (ev):

     9.0235  10.0331  11.3468  11.3478  11.4399  11.9670  11.9670  12.0184
    13.0442  13.0442  14.0483  14.0644  14.3604  14.3604  15.0175  15.0187
    15.1847  15.1847  15.7700  16.1085  17.1933  17.1949  23.6391  23.6400

          k = 0.0000 0.1429 0.1429 (   897 PWs)   bands (ev):

     7.4263  10.3894  10.3899  10.4316  10.8057  10.8058  10.8942  12.9635
    13.3824  13.4261  14.9907  15.2598  15.3977  15.3988  15.4025  16.2449
    16.4587  16.4592  16.8673  16.8674  16.9841  18.8198  18.8205  20.8381

          k = 0.0000 0.1429 0.2857 (   889 PWs)   bands (ev):

     8.1525  10.5345  10.8344  10.9151  11.0971  11.2638  11.3976  12.6048
    13.6641  13.7349  13.9373  14.2203  14.3137  14.6546  15.4994  15.6405
    15.8301  16.0878  16.0889  16.8635  16.8763  17.3294  20.4402  22.5741

          k = 0.0000 0.1429 0.4286 (   897 PWs)   bands (ev):

     9.2206  10.2295  11.4198  11.5003  11.5442  11.9824  12.0111  12.0810
    12.7372  13.0191  13.5678  13.6581  14.3591  14.6635  15.0241  15.1248
    15.1803  15.3284  15.9222  16.4745  16.8567  16.8585  21.6557  22.3926

          k = 0.0000 0.2857 0.2857 (   886 PWs)   bands (ev):

     8.8045  11.0412  11.1058  11.1061  11.4964  11.4968  11.8631  12.5151
    13.1530  13.1541  13.5925  13.6928  13.9095  14.5500  15.2832  15.6303
    15.6305  15.8705  16.0807  16.0813  16.4086  18.6781  18.6791  21.7348

          k = 0.0000 0.2857 0.4286 (   897 PWs)   bands (ev):

     9.7666  10.7499  11.4914  11.8334  11.8410  12.1259  12.1888  12.2003
    12.2217  12.9125  12.9294  13.3393  14.4167  14.5479  14.8826  15.0445
    15.0586  15.1892  16.0917  16.1678  16.5759  17.4618  19.8158  20.7176

          k = 0.0000 0.4286 0.4286 (   898 PWs)   bands (ev):

    10.5224  11.2987  11.2993  11.4826  12.2552  12.2561  12.3076  12.5150
    12.6136  12.6144  12.6565  13.1143  14.3113  14.5458  14.6047  14.6057
    14.6916  15.2826  15.2838  15.5853  17.4967  18.5133  18.5145  19.5080

          k = 0.1429 0.1429 0.1429 (   904 PWs)   bands (ev):

     7.6666  10.5148  10.5155  10.5155  10.9998  11.0000  11.0000  12.9245
    13.4517  13.4517  14.9460  14.9460  14.9470  15.1178  15.1178  15.9333
    15.9343  15.9343  16.9896  16.9908  16.9908  19.5681  19.5681  19.5685

          k = 0.1429 0.1429 0.2857 (   895 PWs)   bands (ev):

     8.3548  10.6370  10.8978  10.8982  11.3021  11.5021  11.5024  12.6518
    13.6295  13.6743  13.8567  13.8571  13.9645  14.8495  15.3005  15.4631
    15.4724  15.4735  16.8221  16.8378  16.8389  17.6917  20.9288  20.9289

          k = 0.1429 0.1429 0.4286 (   899 PWs)   bands (ev):

     9.3636  10.3245  11.4932  11.4939  11.7282  11.9374  11.9382  12.2031
    12.9424  12.9431  13.3627  13.5345  14.0708  14.6330  14.9716  14.9728
    15.1256  15.9395  16.1598  16.4342  16.7098  16.7111  22.0356  22.0359

          k = 0.1429 0.2857 0.2857 (   894 PWs)   bands (ev):

     8.9263  10.9325  10.9328  11.0156  11.8307  11.8311  11.9542  12.6776
    13.1941  13.1951  13.5580  13.5702  13.6854  14.9177  14.9420  14.9423
    14.9470  15.7716  16.6488  16.6560  16.6564  18.8666  18.8674  21.9759

          k = 0.1429 0.2857 0.4286 (   898 PWs)   bands (ev):

     9.7473  10.5548  11.2837  11.3079  12.1576  12.1636  12.2549  12.5283
    12.8992  12.9617  13.2345  13.3315  13.8898  14.3349  14.5629  14.6383
    15.2510  16.0550  16.3985  16.3999  16.4642  17.3731  20.0038  21.0172

          k = 0.1429 0.4286 0.4286 (   895 PWs)   bands (ev):

    10.2633  10.8114  10.8116  11.0405  12.4777  12.6765  12.6773  12.8322
    12.9675  12.9680  13.1890  13.3534  13.8193  14.1278  14.1281  14.1566
    15.3020  15.8381  15.8386  15.9959  17.3746  18.4550  18.4562  19.5549

          k = 0.2857 0.2857 0.2857 (   895 PWs)   bands (ev):

     9.2678  10.7975  10.7979  10.7979  12.2919  12.2927  12.2927  13.0705
    13.3500  13.3500  13.3513  13.4958  13.4958  14.3169  14.3179  14.3179
    15.6207  15.6207  16.8636  16.8648  16.8648  19.4833  19.4833  19.4837

          k = 0.2857 0.2857 0.4286 (   915 PWs)   bands (ev):

     9.7654  10.3252  10.7632  10.7635  12.4381  12.4388  12.8301  13.2688
    13.2922  13.3368  13.5362  13.7092  13.7099  13.8220  14.0322  14.0332
    16.0073  16.2748  16.6572  16.6581  16.7356  17.3887  20.1989  20.1990

          k = 0.2857 0.4286 0.4286 (   905 PWs)   bands (ev):

     9.9252  10.2658  10.2658  10.4101  12.7280  12.8632  12.8638  13.1927
    13.3817  13.5669  13.5670  13.6260  14.1272  14.1521  14.1521  14.3245
    16.0468  16.5146  16.5149  16.5404  17.0085  18.2206  18.2214  19.2780

          k = 0.4286 0.4286 0.4286 (   916 PWs)   bands (ev):

     9.8089   9.9735   9.9735   9.9735  13.0225  13.0226  13.0226  13.1947
    13.1947  13.2806  13.2816  13.2816  15.2497  15.2497  15.2497  15.4971
    16.5995  16.5995  16.7825  16.7836  16.7836  17.8325  17.8325  17.8326

     the Fermi energy is    16.6776 ev
     (compare with:    16.7352 eV, computed in scf)

     Writing all to output data dir ./Pt.save/

     init_run     :      0.29s CPU      0.32s WALL (       1 calls)
     electrons    :      3.82s CPU      3.92s WALL (       1 calls)

     Called by init_run:
     wfcinit      :      0.00s CPU      0.00s WALL (       1 calls)
     potinit      :      0.23s CPU      0.25s WALL (       1 calls)
     hinit0       :      0.05s CPU      0.06s WALL (       1 calls)

     Called by electrons:
     c_bands      :      3.82s CPU      3.92s WALL (       1 calls)
     v_of_rho     :      0.00s CPU      0.00s WALL (       1 calls)
     newd         :      0.00s CPU      0.00s WALL (       1 calls)
     PAW_pot      :      0.22s CPU      0.24s WALL (       1 calls)

     Called by c_bands:
     init_us_2    :      0.00s CPU      0.00s WALL (      40 calls)
     init_us_2:cp :      0.00s CPU      0.00s WALL (      40 calls)
     cegterg      :      3.67s CPU      3.76s WALL (      98 calls)

     Called by *egterg:
     cdiaghg      :      1.01s CPU      1.04s WALL (    1719 calls)
     h_psi        :      2.08s CPU      2.13s WALL (    1817 calls)
     s_psi        :      0.09s CPU      0.09s WALL (    1817 calls)
     g_psi        :      0.01s CPU      0.02s WALL (    1679 calls)

     Called by h_psi:
     h_psi:calbec :      0.16s CPU      0.17s WALL (    1817 calls)
     vloc_psi     :      1.81s CPU      1.86s WALL (    1817 calls)
     add_vuspsi   :      0.10s CPU      0.10s WALL (    1817 calls)

     General routines
     calbec       :      0.16s CPU      0.16s WALL (    1817 calls)
     fft          :      0.01s CPU      0.02s WALL (      21 calls)
     fftw         :      1.64s CPU      1.68s WALL (   67798 calls)
     davcio       :      0.00s CPU      0.00s WALL (      80 calls)

     Parallel routines

     PWSCF        :      4.28s CPU      4.46s WALL


   This run was terminated on:   7:39:50  11Jun2023            

=------------------------------------------------------------------------------=
   JOB DONE.
=------------------------------------------------------------------------------=
