  67  67   0   0
  0.5111729E+02  0.1121440E-08  0.1121440E-08  0.3144560E-08  0.5000000E-15
  1.000000000000000E-004
  CAR 
 Pt                                      
      5.87783502    -26.08363429  301     -0.89118791      1.00000000
    -26.084  0.0000E+00  0.0000E+00
    -25.977  0.0000E+00  0.0000E+00
    -25.871  0.0000E+00  0.0000E+00
    -25.764  0.0000E+00  0.0000E+00
    -25.657  0.0000E+00  0.0000E+00
    -25.551  0.0000E+00  0.0000E+00
    -25.444 -0.3805E-29 -0.4054E-30
    -25.338 -0.3598E-22 -0.3833E-23
    -25.231 -0.3434E-16 -0.3659E-17
    -25.125 -0.3148E-11 -0.3354E-12
    -25.018 -0.2886E-07 -0.3075E-08
    -24.912 -0.2437E-04 -0.2600E-05
    -24.805 -0.1539E-02 -0.1666E-03
    -24.699  0.6037E-02  0.4766E-03
    -24.592  0.7075E-01  0.8015E-02
    -24.486  0.2143E-01  0.1030E-01
    -24.379 -0.2691E-02  0.1001E-01
    -24.272 -0.1004E-03  0.1000E-01
    -24.166 -0.2340E-06  0.1000E-01
    -24.059 -0.4876E-10  0.1000E-01
    -23.953 -0.9783E-15  0.1000E-01
    -23.846  0.0000E+00  0.1000E-01
    -23.740  0.0000E+00  0.1000E-01
    -23.633  0.0000E+00  0.1000E-01
    -23.527  0.0000E+00  0.1000E-01
    -23.420  0.0000E+00  0.1000E-01
    -23.314  0.0000E+00  0.1000E-01
    -23.207  0.0000E+00  0.1000E-01
    -23.101  0.0000E+00  0.1000E-01
    -22.994  0.0000E+00  0.1000E-01
    -22.887  0.0000E+00  0.1000E-01
    -22.781  0.0000E+00  0.1000E-01
    -22.674  0.0000E+00  0.1000E-01
    -22.568  0.0000E+00  0.1000E-01
    -22.461  0.0000E+00  0.1000E-01
    -22.355  0.0000E+00  0.1000E-01
    -22.248  0.0000E+00  0.1000E-01
    -22.142  0.0000E+00  0.1000E-01
    -22.035  0.0000E+00  0.1000E-01
    -21.929  0.0000E+00  0.1000E-01
    -21.822  0.0000E+00  0.1000E-01
    -21.716  0.0000E+00  0.1000E-01
    -21.609  0.0000E+00  0.1000E-01
    -21.502  0.0000E+00  0.1000E-01
    -21.396  0.0000E+00  0.1000E-01
    -21.289  0.0000E+00  0.1000E-01
    -21.183  0.0000E+00  0.1000E-01
    -21.076  0.0000E+00  0.1000E-01
    -20.970  0.0000E+00  0.1000E-01
    -20.863  0.0000E+00  0.1000E-01
    -20.757  0.0000E+00  0.1000E-01
    -20.650  0.0000E+00  0.1000E-01
    -20.544  0.0000E+00  0.1000E-01
    -20.437  0.0000E+00  0.1000E-01
    -20.331  0.0000E+00  0.1000E-01
    -20.224  0.0000E+00  0.1000E-01
    -20.117  0.0000E+00  0.1000E-01
    -20.011  0.0000E+00  0.1000E-01
    -19.904  0.0000E+00  0.1000E-01
    -19.798  0.0000E+00  0.1000E-01
    -19.691  0.0000E+00  0.1000E-01
    -19.585  0.0000E+00  0.1000E-01
    -19.478  0.0000E+00  0.1000E-01
    -19.372  0.0000E+00  0.1000E-01
    -19.265  0.0000E+00  0.1000E-01
    -19.159  0.0000E+00  0.1000E-01
    -19.052  0.0000E+00  0.1000E-01
    -18.946  0.0000E+00  0.1000E-01
    -18.839  0.0000E+00  0.1000E-01
    -18.732  0.0000E+00  0.1000E-01
    -18.626  0.0000E+00  0.1000E-01
    -18.519  0.0000E+00  0.1000E-01
    -18.413  0.0000E+00  0.1000E-01
    -18.306  0.0000E+00  0.1000E-01
    -18.200  0.0000E+00  0.1000E-01
    -18.093  0.0000E+00  0.1000E-01
    -17.987  0.0000E+00  0.1000E-01
    -17.880  0.0000E+00  0.1000E-01
    -17.774  0.0000E+00  0.1000E-01
    -17.667  0.0000E+00  0.1000E-01
    -17.561  0.0000E+00  0.1000E-01
    -17.454  0.0000E+00  0.1000E-01
    -17.347  0.0000E+00  0.1000E-01
    -17.241  0.0000E+00  0.1000E-01
    -17.134  0.0000E+00  0.1000E-01
    -17.028  0.0000E+00  0.1000E-01
    -16.921  0.0000E+00  0.1000E-01
    -16.815  0.0000E+00  0.1000E-01
    -16.708  0.0000E+00  0.1000E-01
    -16.602  0.0000E+00  0.1000E-01
    -16.495  0.0000E+00  0.1000E-01
    -16.389  0.0000E+00  0.1000E-01
    -16.282  0.0000E+00  0.1000E-01
    -16.176  0.0000E+00  0.1000E-01
    -16.069  0.0000E+00  0.1000E-01
    -15.963  0.0000E+00  0.1000E-01
    -15.856  0.0000E+00  0.1000E-01
    -15.749  0.0000E+00  0.1000E-01
    -15.643  0.0000E+00  0.1000E-01
    -15.536  0.0000E+00  0.1000E-01
    -15.430  0.0000E+00  0.1000E-01
    -15.323  0.0000E+00  0.1000E-01
    -15.217  0.0000E+00  0.1000E-01
    -15.110  0.0000E+00  0.1000E-01
    -15.004  0.0000E+00  0.1000E-01
    -14.897  0.0000E+00  0.1000E-01
    -14.791  0.0000E+00  0.1000E-01
    -14.684  0.0000E+00  0.1000E-01
    -14.578  0.0000E+00  0.1000E-01
    -14.471  0.0000E+00  0.1000E-01
    -14.364  0.0000E+00  0.1000E-01
    -14.258  0.0000E+00  0.1000E-01
    -14.151  0.0000E+00  0.1000E-01
    -14.045  0.0000E+00  0.1000E-01
    -13.938  0.0000E+00  0.1000E-01
    -13.832  0.0000E+00  0.1000E-01
    -13.725  0.0000E+00  0.1000E-01
    -13.619  0.0000E+00  0.1000E-01
    -13.512  0.0000E+00  0.1000E-01
    -13.406  0.0000E+00  0.1000E-01
    -13.299  0.0000E+00  0.1000E-01
    -13.193  0.0000E+00  0.1000E-01
    -13.086  0.0000E+00  0.1000E-01
    -12.979  0.0000E+00  0.1000E-01
    -12.873  0.0000E+00  0.1000E-01
    -12.766  0.0000E+00  0.1000E-01
    -12.660  0.0000E+00  0.1000E-01
    -12.553  0.0000E+00  0.1000E-01
    -12.447  0.0000E+00  0.1000E-01
    -12.340  0.0000E+00  0.1000E-01
    -12.234  0.0000E+00  0.1000E-01
    -12.127  0.0000E+00  0.1000E-01
    -12.021  0.0000E+00  0.1000E-01
    -11.914 -0.7571E-32  0.1000E-01
    -11.808 -0.1603E-24  0.1000E-01
    -11.701 -0.3437E-18  0.1000E-01
    -11.594 -0.7147E-13  0.1000E-01
    -11.488 -0.1497E-08  0.1000E-01
    -11.381 -0.2968E-05  0.1000E-01
    -11.275 -0.4937E-03  0.9947E-02
    -11.168 -0.2319E-02  0.9700E-02
    -11.062  0.5046E-01  0.1508E-01
    -10.955  0.4915E-01  0.2031E-01
    -10.849 -0.2462E-02  0.2005E-01
    -10.742 -0.4633E-03  0.2000E-01
    -10.636 -0.2665E-05  0.2000E-01
    -10.529 -0.2062E-07  0.2000E-01
    -10.423 -0.7556E-05  0.2000E-01
    -10.316 -0.1917E-03  0.1998E-01
    -10.209  0.7847E-03  0.2006E-01
    -10.103  0.8250E-02  0.2094E-01
     -9.996  0.2726E-01  0.2385E-01
     -9.890  0.4870E-02  0.2436E-01
     -9.783  0.1903E-01  0.2639E-01
     -9.677  0.3221E-01  0.2982E-01
     -9.570  0.1962E-01  0.3191E-01
     -9.464 -0.1765E-02  0.3172E-01
     -9.357  0.1145E-01  0.3294E-01
     -9.251  0.5150E-01  0.3843E-01
     -9.144  0.1529E-01  0.4006E-01
     -9.038  0.2657E-01  0.4289E-01
     -8.931  0.1653E-01  0.4465E-01
     -8.824  0.3170E-01  0.4803E-01
     -8.718  0.4669E-01  0.5300E-01
     -8.611  0.8899E-01  0.6248E-01
     -8.505  0.2833E-01  0.6550E-01
     -8.398  0.7204E-01  0.7318E-01
     -8.292  0.8479E-01  0.8221E-01
     -8.185  0.4960E-01  0.8749E-01
     -8.079  0.2476E-01  0.9013E-01
     -7.972  0.1173E+00  0.1026E+00
     -7.866  0.6297E-01  0.1093E+00
     -7.759  0.6748E-01  0.1165E+00
     -7.653  0.6861E-01  0.1238E+00
     -7.546  0.1980E+00  0.1449E+00
     -7.439  0.2440E+00  0.1709E+00
     -7.333  0.2326E+00  0.1957E+00
     -7.226  0.1990E+00  0.2169E+00
     -7.120  0.2425E+00  0.2427E+00
     -7.013  0.3261E+00  0.2775E+00
     -6.907  0.2575E+00  0.3049E+00
     -6.800  0.2391E+00  0.3304E+00
     -6.694  0.3401E+00  0.3666E+00
     -6.587  0.4168E+00  0.4110E+00
     -6.481  0.5167E+00  0.4661E+00
     -6.374  0.4645E+00  0.5156E+00
     -6.268  0.4539E+00  0.5639E+00
     -6.161  0.4692E+00  0.6139E+00
     -6.054  0.3903E+00  0.6555E+00
     -5.948  0.3133E+00  0.6889E+00
     -5.841  0.3324E+00  0.7243E+00
     -5.735  0.1751E+00  0.7429E+00
     -5.628  0.3510E+00  0.7803E+00
     -5.522  0.5026E+00  0.8339E+00
     -5.415  0.4085E+00  0.8774E+00
     -5.309  0.3519E+00  0.9149E+00
     -5.202  0.4228E+00  0.9599E+00
     -5.096  0.4891E+00  0.1012E+01
     -4.989  0.4032E+00  0.1055E+01
     -4.883  0.3868E+00  0.1096E+01
     -4.776  0.3387E+00  0.1132E+01
     -4.669  0.4285E+00  0.1178E+01
     -4.563  0.4775E+00  0.1229E+01
     -4.456  0.6195E+00  0.1295E+01
     -4.350  0.6683E+00  0.1366E+01
     -4.243  0.5029E+00  0.1420E+01
     -4.137  0.6106E+00  0.1485E+01
     -4.030  0.7558E+00  0.1565E+01
     -3.924  0.7548E+00  0.1646E+01
     -3.817  0.6995E+00  0.1720E+01
     -3.711  0.7570E+00  0.1801E+01
     -3.604  0.7293E+00  0.1878E+01
     -3.498  0.5619E+00  0.1938E+01
     -3.391  0.3862E+00  0.1979E+01
     -3.284  0.3579E+00  0.2018E+01
     -3.178  0.3716E+00  0.2057E+01
     -3.071  0.3461E+00  0.2094E+01
     -2.965  0.5683E+00  0.2155E+01
     -2.858  0.7170E+00  0.2231E+01
     -2.752  0.5197E+00  0.2286E+01
     -2.645  0.3912E+00  0.2328E+01
     -2.539  0.3777E+00  0.2368E+01
     -2.432  0.4189E+00  0.2413E+01
     -2.326  0.4461E+00  0.2460E+01
     -2.219  0.4538E+00  0.2509E+01
     -2.113  0.5205E+00  0.2564E+01
     -2.006  0.6983E+00  0.2639E+01
     -1.899  0.6631E+00  0.2709E+01
     -1.793  0.5775E+00  0.2771E+01
     -1.686  0.4165E+00  0.2815E+01
     -1.580  0.2699E+00  0.2844E+01
     -1.473  0.5385E+00  0.2901E+01
     -1.367  0.5743E+00  0.2962E+01
     -1.260  0.4846E+00  0.3014E+01
     -1.154  0.4798E+00  0.3065E+01
     -1.047  0.6344E+00  0.3133E+01
     -0.941  0.7722E+00  0.3215E+01
     -0.834  0.7524E+00  0.3295E+01
     -0.728  0.5469E+00  0.3354E+01
     -0.621  0.5031E+00  0.3407E+01
     -0.514  0.3108E+00  0.3440E+01
     -0.408  0.8366E-01  0.3449E+01
     -0.301  0.1211E+00  0.3462E+01
     -0.195  0.1053E+00  0.3473E+01
     -0.088  0.6762E-01  0.3480E+01
      0.018  0.1183E+00  0.3493E+01
      0.125  0.1657E+00  0.3511E+01
      0.231  0.1368E+00  0.3525E+01
      0.338  0.1724E+00  0.3544E+01
      0.444  0.1031E+00  0.3555E+01
      0.551  0.9842E-01  0.3565E+01
      0.657  0.2985E-01  0.3568E+01
      0.764  0.1507E-01  0.3570E+01
      0.871  0.8575E-01  0.3579E+01
      0.977  0.8477E-01  0.3588E+01
      1.084  0.1463E+00  0.3604E+01
      1.190  0.1290E+00  0.3617E+01
      1.297  0.1417E+00  0.3632E+01
      1.403  0.1291E+00  0.3646E+01
      1.510  0.1320E+00  0.3660E+01
      1.616  0.1153E+00  0.3673E+01
      1.723  0.5952E-01  0.3679E+01
      1.829  0.9646E-01  0.3689E+01
      1.936  0.5535E-01  0.3695E+01
      2.042  0.9713E-01  0.3705E+01
      2.149  0.1332E+00  0.3720E+01
      2.256  0.1092E+00  0.3731E+01
      2.362  0.9844E-01  0.3742E+01
      2.469  0.1216E+00  0.3755E+01
      2.575  0.1300E+00  0.3769E+01
      2.682  0.7759E-01  0.3777E+01
      2.788  0.7222E-01  0.3785E+01
      2.895  0.1173E+00  0.3797E+01
      3.001  0.1348E+00  0.3811E+01
      3.108  0.9692E-01  0.3822E+01
      3.214  0.9626E-01  0.3832E+01
      3.321  0.1069E+00  0.3843E+01
      3.427  0.1639E+00  0.3861E+01
      3.534  0.7019E-01  0.3868E+01
      3.641  0.5831E-01  0.3875E+01
      3.747  0.7024E-01  0.3882E+01
      3.854  0.4596E-01  0.3887E+01
      3.960  0.2073E-01  0.3889E+01
      4.067  0.9150E-01  0.3899E+01
      4.173  0.9639E-01  0.3909E+01
      4.280  0.6301E-01  0.3916E+01
      4.386  0.2423E-01  0.3918E+01
      4.493  0.1497E-01  0.3920E+01
      4.599 -0.3169E-04  0.3920E+01
      4.706 -0.2355E-03  0.3920E+01
      4.812 -0.3195E-05  0.3920E+01
      4.919 -0.3673E-08  0.3920E+01
      5.026 -0.3986E-12  0.3920E+01
      5.132 -0.5210E-17  0.3920E+01
      5.239  0.0000E+00  0.3920E+01
      5.345  0.0000E+00  0.3920E+01
      5.452  0.0000E+00  0.3920E+01
      5.558  0.0000E+00  0.3920E+01
      5.665  0.0000E+00  0.3920E+01
      5.771  0.0000E+00  0.3920E+01
      5.878  0.0000E+00  0.3920E+01
