<?xml version="1.0" encoding="ISO-8859-1"?>
<modeling>
 <generator>
  <i name="program" type="string">vasp </i>
  <i name="version" type="string">5.4.4.18Apr17-6-g9f103f2a35  </i>
  <i name="subversion" type="string">(build May 23 2022 10:35:18) complex            parallel </i>
  <i name="platform" type="string">IFC18_impi </i>
  <i name="date" type="string">2023 06 21 </i>
  <i name="time" type="string">11:07:37 </i>
 </generator>
 <incar>
  <i type="string" name="SYSTEM"> Pt</i>
  <i type="int" name="ISTART">     0</i>
  <i type="string" name="PREC">med   normal | accurate</i>
  <i type="string" name="ALGO">  Fast    Normal, Fast, Very_Fast</i>
  <i type="int" name="ICHARG">     2</i>
  <i type="int" name="INIWAV">     1</i>
  <i type="int" name="NELM">   100</i>
  <i type="int" name="IBRION">     2</i>
  <i name="EDIFF">      0.00001000</i>
  <i type="int" name="NSW">   200</i>
  <i type="int" name="ISIF">     1</i>
  <i type="int" name="ISYM">     0</i>
  <i name="ENCUT">    400.00000000</i>
  <i type="string" name="LREAL">  Auto     real-space projection (.FALSE</i>
  <i type="int" name="ISMEAR">     1</i>
  <i name="SIGMA">      0.10000000</i>
  <i type="int" name="NWRITE">     2</i>
  <i type="logical" name="LWAVE"> F  </i>
  <i type="logical" name="LCHARG"> F  </i>
  <i type="logical" name="LAECHG"> F  </i>
  <v type="int" name="KPOINT_BSE">    -1     0     0     0</v>
  <i type="int" name="NELM">   100</i>
 </incar>
 <structure name="primitive_cell" >
  <crystal>
   <varray name="basis" >
    <v>      11.21440000       0.00000000       0.00000000 </v>
    <v>       5.60720000       9.71195529       0.00000000 </v>
    <v>       0.00000000       0.00000000      31.44560000 </v>
   </varray>
   <i name="volume">   3424.85826052 </i>
   <varray name="rec_basis" >
    <v>       0.08917107      -0.05148294       0.00000000 </v>
    <v>       0.00000000       0.10296588       0.00000000 </v>
    <v>       0.00000000       0.00000000       0.03180095 </v>
   </varray>
  </crystal>
  <varray name="positions" >
   <v>       0.08333000       0.33333000       0.39081000 </v>
   <v>       0.16667000       0.16667000       0.46360000 </v>
   <v>      -0.08333000       0.41667000       0.46360000 </v>
   <v>       0.16667000       0.41667000       0.46360000 </v>
   <v>       0.33333000       0.08333000       0.39081000 </v>
   <v>      -0.16667000      -0.41667000       0.39081000 </v>
   <v>       0.33333000       0.33333000       0.39081000 </v>
   <v>      -0.16667000       0.33333000       0.39081000 </v>
   <v>       0.08333000       0.08333000       0.39081000 </v>
   <v>       0.08333000      -0.41667000       0.39081000 </v>
   <v>      -0.08333000       0.16667000       0.46360000 </v>
   <v>       0.41667000       0.16667000       0.46360000 </v>
   <v>      -0.08333000      -0.33333000       0.46360000 </v>
   <v>      -0.00056618       0.25055113      -0.46464379 </v>
   <v>       0.25071799       0.25078149      -0.46458742 </v>
   <v>      -0.00002078      -0.49955342      -0.46430094 </v>
   <v>       0.16667000      -0.08333000       0.46360000 </v>
   <v>      -0.33333000       0.41667000       0.46360000 </v>
   <v>       0.41667000      -0.08333000       0.46360000 </v>
   <v>      -0.33333000      -0.33333000       0.46360000 </v>
   <v>       0.33333000      -0.16667000       0.39081000 </v>
   <v>      -0.41667000      -0.41667000       0.39081000 </v>
   <v>      -0.41667000       0.08333000       0.39081000 </v>
   <v>      -0.16667000       0.08333000       0.39081000 </v>
   <v>       0.33333000      -0.41667000       0.39081000 </v>
   <v>      -0.16667000      -0.16667000       0.39081000 </v>
   <v>       0.16667000      -0.33333000       0.46360000 </v>
   <v>       0.41667000       0.41667000       0.46360000 </v>
   <v>       0.24992021       0.00073788      -0.46441787 </v>
   <v>      -0.25011613      -0.49913008      -0.46423093 </v>
   <v>       0.24978862      -0.49912917      -0.46432112 </v>
   <v>       0.08333000      -0.16667000       0.39081000 </v>
   <v>      -0.41667000       0.33333000       0.39081000 </v>
   <v>      -0.41667000      -0.16667000       0.39081000 </v>
   <v>      -0.00114936       0.00175608      -0.46446148 </v>
   <v>       0.49997823       0.00183639      -0.46442043 </v>
   <v>      -0.25041738      -0.24895296      -0.46424715 </v>
   <v>      -0.00031950      -0.24880808      -0.46424677 </v>
   <v>      -0.33333000       0.16667000       0.46360000 </v>
   <v>      -0.08333000      -0.08333000       0.46360000 </v>
   <v>      -0.33333000      -0.08333000       0.46360000 </v>
   <v>      -0.25333627       0.25288134      -0.46266874 </v>
   <v>      -0.49853840       0.25292383      -0.46260546 </v>
   <v>       0.08348913       0.33513523      -0.39122809 </v>
   <v>       0.41667000      -0.33333000       0.46360000 </v>
   <v>      -0.16542304       0.33575062      -0.39125109 </v>
   <v>       0.25032204      -0.24970650      -0.46463588 </v>
   <v>       0.08284342       0.08597852      -0.39123051 </v>
   <v>       0.49993351      -0.24990030      -0.46451445 </v>
   <v>       0.33343322       0.08579564      -0.39126160 </v>
   <v>       0.33213481       0.33560058      -0.39119288 </v>
   <v>      -0.16664266      -0.41409370      -0.39114186 </v>
   <v>       0.08271076      -0.41420402      -0.39123449 </v>
   <v>      -0.49867025       0.49830243      -0.46256484 </v>
   <v>      -0.25041855       0.00128574      -0.46421769 </v>
   <v>       0.33297619      -0.16399089      -0.39125240 </v>
   <v>      -0.16617236       0.08516497      -0.39105670 </v>
   <v>      -0.41671140       0.08525110      -0.39092638 </v>
   <v>      -0.41691352      -0.41255337      -0.39098074 </v>
   <v>       0.33120321      -0.41248968      -0.39130805 </v>
   <v>      -0.16703161      -0.16407390      -0.39111635 </v>
   <v>      -0.11109499       0.18900117      -0.35361499 </v>
   <v>       0.08322605      -0.16391178      -0.39121727 </v>
   <v>      -0.41728172      -0.16398247      -0.39119445 </v>
   <v>      -0.41812103       0.33769881      -0.38136286 </v>
   <v>      -0.42194095       0.34967734      -0.31837358 </v>
   <v>       0.47913154       0.38446010      -0.29596433 </v>
  </varray>
 </structure>
 <varray name="primitive_index" >
  <v type="int" >        1 </v>
  <v type="int" >        7 </v>
  <v type="int" >       38 </v>
  <v type="int" >        8 </v>
  <v type="int" >        4 </v>
  <v type="int" >       52 </v>
  <v type="int" >        3 </v>
  <v type="int" >       35 </v>
  <v type="int" >        2 </v>
  <v type="int" >       18 </v>
  <v type="int" >       37 </v>
  <v type="int" >        5 </v>
  <v type="int" >       53 </v>
  <v type="int" >       44 </v>
  <v type="int" >       10 </v>
  <v type="int" >       59 </v>
  <v type="int" >       24 </v>
  <v type="int" >       40 </v>
  <v type="int" >       22 </v>
  <v type="int" >       55 </v>
  <v type="int" >       19 </v>
  <v type="int" >       50 </v>
  <v type="int" >       34 </v>
  <v type="int" >       36 </v>
  <v type="int" >       20 </v>
  <v type="int" >       51 </v>
  <v type="int" >       23 </v>
  <v type="int" >        6 </v>
  <v type="int" >        9 </v>
  <v type="int" >       57 </v>
  <v type="int" >       25 </v>
  <v type="int" >       17 </v>
  <v type="int" >       33 </v>
  <v type="int" >       49 </v>
  <v type="int" >       43 </v>
  <v type="int" >       11 </v>
  <v type="int" >       58 </v>
  <v type="int" >       60 </v>
  <v type="int" >       39 </v>
  <v type="int" >       54 </v>
  <v type="int" >       56 </v>
  <v type="int" >       42 </v>
  <v type="int" >       12 </v>
  <v type="int" >       13 </v>
  <v type="int" >       21 </v>
  <v type="int" >       47 </v>
  <v type="int" >       26 </v>
  <v type="int" >       14 </v>
  <v type="int" >       28 </v>
  <v type="int" >       16 </v>
  <v type="int" >       15 </v>
  <v type="int" >       64 </v>
  <v type="int" >       30 </v>
  <v type="int" >       27 </v>
  <v type="int" >       41 </v>
  <v type="int" >       31 </v>
  <v type="int" >       48 </v>
  <v type="int" >       46 </v>
  <v type="int" >       62 </v>
  <v type="int" >       32 </v>
  <v type="int" >       63 </v>
  <v type="int" >       67 </v>
  <v type="int" >       29 </v>
  <v type="int" >       61 </v>
  <v type="int" >       45 </v>
  <v type="int" >       66 </v>
  <v type="int" >       65 </v>
 </varray>
 <kpoints>
  <generation param="Gamma">
   <v type="int" name="divisions">       4        4        1 </v>
   <v name="usershift">      0.00000000       0.00000000       0.00000000 </v>
   <v name="genvec1">      0.25000000      -0.00000000       0.00000000 </v>
   <v name="genvec2">      0.00000000       0.25000000       0.00000000 </v>
   <v name="genvec3">      0.00000000       0.00000000       1.00000000 </v>
   <v name="shift">      0.00000000       0.00000000       0.00000000 </v>
  </generation>
  <varray name="kpointlist" >
   <v>       0.00000000       0.00000000       0.00000000 </v>
   <v>       0.25000000       0.00000000       0.00000000 </v>
   <v>       0.50000000       0.00000000       0.00000000 </v>
   <v>       0.00000000       0.25000000       0.00000000 </v>
   <v>       0.25000000       0.25000000       0.00000000 </v>
   <v>       0.50000000       0.25000000       0.00000000 </v>
   <v>      -0.25000000       0.25000000       0.00000000 </v>
   <v>       0.00000000       0.50000000       0.00000000 </v>
   <v>       0.25000000       0.50000000       0.00000000 </v>
   <v>       0.50000000       0.50000000       0.00000000 </v>
  </varray>
  <varray name="weights" >
   <v>       0.06250000 </v>
   <v>       0.12500000 </v>
   <v>       0.06250000 </v>
   <v>       0.12500000 </v>
   <v>       0.12500000 </v>
   <v>       0.12500000 </v>
   <v>       0.12500000 </v>
   <v>       0.06250000 </v>
   <v>       0.12500000 </v>
   <v>       0.06250000 </v>
  </varray>
 </kpoints>
 <parameters>
  <separator name="general" >
   <i type="string" name="SYSTEM">Pt</i>
   <i type="logical" name="LCOMPAT"> F  </i>
  </separator>
  <separator name="electronic" >
   <i type="string" name="PREC">med</i>
   <i name="ENMAX">    400.00000000</i>
   <i name="ENAUG">    644.87300000</i>
   <i name="EDIFF">      0.00001000</i>
   <i type="int" name="IALGO">    68</i>
   <i type="int" name="IWAVPR">    11</i>
   <i type="int" name="NBANDS">   392</i>
   <i name="NELECT">    651.00000000</i>
   <i type="int" name="TURBO">     0</i>
   <i type="int" name="IRESTART">     0</i>
   <i type="int" name="NREBOOT">     0</i>
   <i type="int" name="NMIN">     0</i>
   <i name="EREF">      0.00000000</i>
   <separator name="electronic smearing" >
    <i type="int" name="ISMEAR">     1</i>
    <i name="SIGMA">      0.10000000</i>
    <i name="KSPACING">      0.50000000</i>
    <i type="logical" name="KGAMMA"> T  </i>
   </separator>
   <separator name="electronic projectors" >
    <i type="logical" name="LREAL"> T  </i>
    <v name="ROPT">     -0.00200000     -0.00200000     -0.00200000     -0.00200000</v>
    <i type="int" name="LMAXPAW">  -100</i>
    <i type="int" name="LMAXMIX">     2</i>
    <i type="logical" name="NLSPLINE"> F  </i>
   </separator>
   <separator name="electronic startup" >
    <i type="int" name="ISTART">     0</i>
    <i type="int" name="ICHARG">     2</i>
    <i type="int" name="INIWAV">     1</i>
   </separator>
   <separator name="electronic spin" >
    <i type="int" name="ISPIN">     1</i>
    <i type="logical" name="LNONCOLLINEAR"> F  </i>
    <v name="MAGMOM">      1.00000000      1.00000000      1.00000000      1.00000000      1.00000000      1.00000000      1.00000000      1.00000000      1.00000000      1.00000000      1.00000000      1.00000000      1.00000000      1.00000000      1.00000000      1.00000000      1.00000000      1.00000000      1.00000000      1.00000000
      1.00000000      1.00000000      1.00000000      1.00000000      1.00000000      1.00000000      1.00000000      1.00000000      1.00000000      1.00000000      1.00000000      1.00000000      1.00000000      1.00000000      1.00000000      1.00000000      1.00000000      1.00000000      1.00000000      1.00000000
      1.00000000      1.00000000      1.00000000      1.00000000      1.00000000      1.00000000      1.00000000      1.00000000      1.00000000      1.00000000      1.00000000      1.00000000      1.00000000      1.00000000      1.00000000      1.00000000      1.00000000      1.00000000      1.00000000      1.00000000
      1.00000000      1.00000000      1.00000000      1.00000000      1.00000000      1.00000000      1.00000000</v>
    <i name="NUPDOWN">     -1.00000000</i>
    <i type="logical" name="LSORBIT"> F  </i>
    <v name="SAXIS">      0.00000000      0.00000000      1.00000000</v>
    <i type="logical" name="LSPIRAL"> F  </i>
    <v name="QSPIRAL">      0.00000000      0.00000000      0.00000000</v>
    <i type="logical" name="LZEROZ"> F  </i>
   </separator>
   <separator name="electronic exchange-correlation" >
    <i type="logical" name="LASPH"> F  </i>
    <i type="logical" name="LMETAGGA"> F  </i>
   </separator>
   <separator name="electronic convergence" >
    <i type="int" name="NELM">   100</i>
    <i type="int" name="NELMDL">    -5</i>
    <i type="int" name="NELMIN">     2</i>
    <i name="ENINI">    400.00000000</i>
    <separator name="electronic convergence detail" >
     <i type="logical" name="LDIAG"> T  </i>
     <i type="logical" name="LSUBROT"> F  </i>
     <i name="WEIMIN">      0.00100000</i>
     <i name="EBREAK">      0.00000001</i>
     <i name="DEPER">      0.30000000</i>
     <i type="int" name="NRMM">     4</i>
     <i name="TIME">      0.40000000</i>
    </separator>
   </separator>
   <separator name="electronic mixer" >
    <i name="AMIX">      0.40000000</i>
    <i name="BMIX">      1.00000000</i>
    <i name="AMIN">      0.10000000</i>
    <i name="AMIX_MAG">      1.60000000</i>
    <i name="BMIX_MAG">      1.00000000</i>
    <separator name="electronic mixer details" >
     <i type="int" name="IMIX">     4</i>
     <i type="logical" name="MIXFIRST"> F  </i>
     <i type="int" name="MAXMIX">   -45</i>
     <i name="WC">    100.00000000</i>
     <i type="int" name="INIMIX">     1</i>
     <i type="int" name="MIXPRE">     1</i>
     <i type="int" name="MREMOVE">     5</i>
    </separator>
   </separator>
   <separator name="electronic dipolcorrection" >
    <i type="logical" name="LDIPOL"> F  </i>
    <i type="logical" name="LMONO"> F  </i>
    <i type="int" name="IDIPOL">     0</i>
    <i name="EPSILON">      1.00000000</i>
    <v name="DIPOL">   -100.00000000   -100.00000000   -100.00000000</v>
    <i name="EFIELD">      0.00000000</i>
   </separator>
  </separator>
  <separator name="grids" >
   <i type="int" name="NGX">    56</i>
   <i type="int" name="NGY">    56</i>
   <i type="int" name="NGZ">   160</i>
   <i type="int" name="NGXF">    96</i>
   <i type="int" name="NGYF">    96</i>
   <i type="int" name="NGZF">   270</i>
   <i type="logical" name="ADDGRID"> F  </i>
  </separator>
  <separator name="ionic" >
   <i type="int" name="NSW">   200</i>
   <i type="int" name="IBRION">     2</i>
   <i type="int" name="MDALGO">     0</i>
   <i type="int" name="ISIF">     1</i>
   <i name="PSTRESS">      0.00000000</i>
   <i name="EDIFFG">      0.00010000</i>
   <i type="int" name="NFREE">     1</i>
   <i name="POTIM">      0.50000000</i>
   <i name="SMASS">     -3.00000000</i>
   <i name="SCALEE">      1.00000000</i>
  </separator>
  <separator name="ionic md" >
   <i name="TEBEG">      0.00010000</i>
   <i name="TEEND">      0.00010000</i>
   <i type="int" name="NBLOCK">     1</i>
   <i type="int" name="KBLOCK">   200</i>
   <i type="int" name="NPACO">   256</i>
   <i name="APACO">     16.00000000</i>
  </separator>
  <separator name="symmetry" >
   <i type="int" name="ISYM">     0</i>
   <i name="SYMPREC">      0.00001000</i>
  </separator>
  <separator name="dos" >
   <i type="int" name="LORBIT">     0</i>
   <v name="RWIGS">     -1.00000000     -1.00000000     -1.00000000     -1.00000000</v>
   <i type="int" name="NEDOS">   301</i>
   <i name="EMIN">     10.00000000</i>
   <i name="EMAX">    -10.00000000</i>
   <i name="EFERMI">      0.00000000</i>
  </separator>
  <separator name="writing" >
   <i type="int" name="NWRITE">     2</i>
   <i type="logical" name="LWAVE"> F  </i>
   <i type="logical" name="LDOWNSAMPLE"> F  </i>
   <i type="logical" name="LCHARG"> F  </i>
   <i type="logical" name="LPARD"> F  </i>
   <i type="logical" name="LVTOT"> F  </i>
   <i type="logical" name="LVHAR"> F  </i>
   <i type="logical" name="LELF"> F  </i>
   <i type="logical" name="LOPTICS"> F  </i>
   <v name="STM">      0.00000000      0.00000000      0.00000000      0.00000000      0.00000000      0.00000000      0.00000000</v>
  </separator>
  <separator name="performance" >
   <i type="int" name="NPAR">     8</i>
   <i type="int" name="NSIM">     4</i>
   <i type="int" name="NBLK">    -1</i>
   <i type="logical" name="LPLANE"> T  </i>
   <i type="logical" name="LSCALAPACK"> T  </i>
   <i type="logical" name="LSCAAWARE"> F  </i>
   <i type="logical" name="LSCALU"> F  </i>
   <i type="logical" name="LASYNC"> F  </i>
   <i type="logical" name="LORBITALREAL"> F  </i>
  </separator>
  <separator name="miscellaneous" >
   <i type="int" name="IDIOT">     3</i>
   <i type="int" name="ISPECIAL">     0</i>
   <i type="logical" name="LMUSIC"> F  </i>
   <v name="POMASS">    195.08000000     16.00000000     12.01100000      1.00000000</v>
   <v name="DARWINR">      0.00000000      0.00000000      0.00000000      0.00000000</v>
   <v name="DARWINV">      1.00000000      1.00000000      1.00000000      1.00000000</v>
   <i type="logical" name="LCORR"> T  </i>
  </separator>
  <i type="logical" name="GGA_COMPAT"> T  </i>
  <i type="logical" name="LBERRY"> F  </i>
  <i type="int" name="ICORELEVEL">     0</i>
  <i type="logical" name="LDAU"> F  </i>
  <i type="int" name="I_CONSTRAINED_M">     0</i>
  <separator name="electronic exchange-correlation" >
   <i type="string" name="GGA">--</i>
   <i type="int" name="VOSKOWN">     0</i>
   <i type="logical" name="LHFCALC"> F  </i>
   <i type="string" name="PRECFOCK"></i>
   <i type="logical" name="LSYMGRAD"> F  </i>
   <i type="logical" name="LHFONE"> F  </i>
   <i type="logical" name="LRHFCALC"> F  </i>
   <i type="logical" name="LTHOMAS"> F  </i>
   <i type="logical" name="LMODELHF"> F  </i>
   <i name="ENCUT4O">     -1.00000000</i>
   <i type="int" name="EXXOEP">     0</i>
   <i type="int" name="FOURORBIT">     0</i>
   <i name="AEXX">      0.00000000</i>
   <i name="HFALPHA">      0.00000000</i>
   <i name="MCALPHA">      0.00000000</i>
   <i name="ALDAX">      1.00000000</i>
   <i name="AGGAX">      1.00000000</i>
   <i name="ALDAC">      1.00000000</i>
   <i name="AGGAC">      1.00000000</i>
   <i type="int" name="NKREDX">     1</i>
   <i type="int" name="NKREDY">     1</i>
   <i type="int" name="NKREDZ">     1</i>
   <i type="logical" name="SHIFTRED"> F  </i>
   <i type="logical" name="ODDONLY"> F  </i>
   <i type="logical" name="EVENONLY"> F  </i>
   <i type="int" name="LMAXFOCK">     0</i>
   <i type="int" name="NMAXFOCKAE">     0</i>
   <i type="logical" name="LFOCKAEDFT"> F  </i>
   <i name="HFSCREEN">      0.00000000</i>
   <i name="HFSCREENC">      0.00000000</i>
   <i type="int" name="NBANDSGWLOW">     0</i>
  </separator>
  <separator name="vdW DFT" >
   <i type="logical" name="LUSE_VDW"> F  </i>
   <i name="Zab_VDW">     -0.84910000</i>
   <i name="PARAM1">      0.12340000</i>
   <i name="PARAM2">      1.00000000</i>
   <i name="PARAM3">      0.00000000</i>
  </separator>
  <separator name="model GW" >
   <i type="int" name="MODEL_GW">     0</i>
   <i name="MODEL_EPS0">     30.67037248</i>
   <i name="MODEL_ALPHA">      1.00000000</i>
  </separator>
  <separator name="linear response parameters" >
   <i type="logical" name="LEPSILON"> F  </i>
   <i type="logical" name="LRPA"> F  </i>
   <i type="logical" name="LNABLA"> F  </i>
   <i type="logical" name="LVEL"> F  </i>
   <i type="int" name="KINTER">     0</i>
   <i name="CSHIFT">      0.10000000</i>
   <i name="OMEGAMAX">     -1.00000000</i>
   <i name="DEG_THRESHOLD">      0.00200000</i>
   <i name="RTIME">     -0.10000000</i>
   <i name="WPLASMAI">      0.00000000</i>
   <v name="DFIELD">      0.00000000      0.00000000      0.00000000</v>
   <v name="WPLASMA">      0.00000000      0.00000000      0.00000000      0.00000000      0.00000000      0.00000000      0.00000000      0.00000000      0.00000000</v>
  </separator>
  <separator name="orbital magnetization" >
   <i type="logical" name="NUCIND"> F  </i>
   <v name="MAGPOS">      0.00000000      0.00000000      0.00000000</v>
   <i type="logical" name="LNICSALL"> T  </i>
   <i type="logical" name="ORBITALMAG"> F  </i>
   <i type="logical" name="LMAGBLOCH"> F  </i>
   <i type="logical" name="LCHIMAG"> F  </i>
   <i type="logical" name="LGAUGE"> T  </i>
   <i type="int" name="MAGATOM">     0</i>
   <v name="MAGDIPOL">      0.00000000      0.00000000      0.00000000</v>
   <v name="AVECCONST">      0.00000000      0.00000000      0.00000000</v>
  </separator>
  <separator name="response functions" >
   <i type="logical" name="LADDER"> F  </i>
   <i type="logical" name="LRPAFORCE"> F  </i>
   <i type="logical" name="LFXC"> F  </i>
   <i type="logical" name="LHARTREE"> T  </i>
   <i type="int" name="IBSE">     0</i>
   <v type="int" name="KPOINT">    -1     0     0     0</v>
   <i type="logical" name="LTCTE"> F  </i>
   <i type="logical" name="LTETE"> F  </i>
   <i type="logical" name="LTRIPLET"> F  </i>
   <i type="logical" name="LFXCEPS"> F  </i>
   <i type="logical" name="LFXHEG"> F  </i>
   <i type="int" name="NATURALO">     2</i>
   <i type="logical" name="L2ORDER"> F  </i>
   <i type="logical" name="LMP2LT"> F  </i>
   <i type="logical" name="LUSEW"> F  </i>
   <i name="ENCUTGW">     -2.00000000</i>
   <i name="ENCUTGWSOFT">     -2.00000000</i>
   <i name="ENCUTLF">     -1.00000000</i>
   <i type="int" name="LMAXMP2">    -1</i>
   <i name="SCISSOR">      0.00000000</i>
   <i type="int" name="NOMEGA">     0</i>
   <i type="int" name="NOMEGAR">     0</i>
   <i type="int" name="NBANDSGW">    -1</i>
   <i type="int" name="NBANDSO">    -1</i>
   <i type="int" name="NBANDSV">    -1</i>
   <i type="int" name="NELM">   100</i>
   <i type="int" name="NELMHF">     1</i>
   <i type="int" name="DIM">     3</i>
   <i type="int" name="ANTIRES">     0</i>
   <i name="OMEGAMAX">    -30.00000000</i>
   <i name="OMEGAMIN">    -30.00000000</i>
   <i name="OMEGATL">   -200.00000000</i>
   <i type="int" name="OMEGAGRID">   140</i>
   <i name="CSHIFT">     -0.10000000</i>
   <i type="logical" name="SELFENERGY"> F  </i>
   <i type="logical" name="LSPECTRAL"> F  </i>
   <i type="logical" name="LSPECTRALGW"> F  </i>
   <i type="logical" name="LSINGLES"> F  </i>
   <i type="logical" name="LFERMIGW"> F  </i>
   <i type="logical" name="ODDONLYGW"> F  </i>
   <i type="logical" name="EVENONLYGW"> F  </i>
   <i type="int" name="NKREDLFX">     1</i>
   <i type="int" name="NKREDLFY">     1</i>
   <i type="int" name="NKREDLFZ">     1</i>
   <i type="int" name="MAXMEM">  2800</i>
   <i type="int" name="TELESCOPE">     0</i>
   <i type="int" name="TAUPAR">     1</i>
   <i type="int" name="OMEGAPAR">    -1</i>
   <i name="LAMBDA">      1.00000000</i>
  </separator>
  <separator name="External order field" >
   <i name="OFIELD_KAPPA">      0.00000000</i>
   <v name="OFIELD_K">      0.00000000      0.00000000      0.00000000</v>
   <i name="OFIELD_Q6_NEAR">      0.00000000</i>
   <i name="OFIELD_Q6_FAR">      0.00000000</i>
   <i name="OFIELD_A">      0.00000000</i>
  </separator>
 </parameters>
 <atominfo>
  <atoms>      67 </atoms>
  <types>       4 </types>
  <array name="atoms" >
   <dimension dim="1">ion</dimension>
   <field type="string">element</field>
   <field type="int">atomtype</field>
   <set>
    <rc><c>Pt</c><c>   1</c></rc>
    <rc><c>Pt</c><c>   1</c></rc>
    <rc><c>Pt</c><c>   1</c></rc>
    <rc><c>Pt</c><c>   1</c></rc>
    <rc><c>Pt</c><c>   1</c></rc>
    <rc><c>Pt</c><c>   1</c></rc>
    <rc><c>Pt</c><c>   1</c></rc>
    <rc><c>Pt</c><c>   1</c></rc>
    <rc><c>Pt</c><c>   1</c></rc>
    <rc><c>Pt</c><c>   1</c></rc>
    <rc><c>Pt</c><c>   1</c></rc>
    <rc><c>Pt</c><c>   1</c></rc>
    <rc><c>Pt</c><c>   1</c></rc>
    <rc><c>Pt</c><c>   1</c></rc>
    <rc><c>Pt</c><c>   1</c></rc>
    <rc><c>Pt</c><c>   1</c></rc>
    <rc><c>Pt</c><c>   1</c></rc>
    <rc><c>Pt</c><c>   1</c></rc>
    <rc><c>Pt</c><c>   1</c></rc>
    <rc><c>Pt</c><c>   1</c></rc>
    <rc><c>Pt</c><c>   1</c></rc>
    <rc><c>Pt</c><c>   1</c></rc>
    <rc><c>Pt</c><c>   1</c></rc>
    <rc><c>Pt</c><c>   1</c></rc>
    <rc><c>Pt</c><c>   1</c></rc>
    <rc><c>Pt</c><c>   1</c></rc>
    <rc><c>Pt</c><c>   1</c></rc>
    <rc><c>Pt</c><c>   1</c></rc>
    <rc><c>Pt</c><c>   1</c></rc>
    <rc><c>Pt</c><c>   1</c></rc>
    <rc><c>Pt</c><c>   1</c></rc>
    <rc><c>Pt</c><c>   1</c></rc>
    <rc><c>Pt</c><c>   1</c></rc>
    <rc><c>Pt</c><c>   1</c></rc>
    <rc><c>Pt</c><c>   1</c></rc>
    <rc><c>Pt</c><c>   1</c></rc>
    <rc><c>Pt</c><c>   1</c></rc>
    <rc><c>Pt</c><c>   1</c></rc>
    <rc><c>Pt</c><c>   1</c></rc>
    <rc><c>Pt</c><c>   1</c></rc>
    <rc><c>Pt</c><c>   1</c></rc>
    <rc><c>Pt</c><c>   1</c></rc>
    <rc><c>Pt</c><c>   1</c></rc>
    <rc><c>Pt</c><c>   1</c></rc>
    <rc><c>Pt</c><c>   1</c></rc>
    <rc><c>Pt</c><c>   1</c></rc>
    <rc><c>Pt</c><c>   1</c></rc>
    <rc><c>Pt</c><c>   1</c></rc>
    <rc><c>Pt</c><c>   1</c></rc>
    <rc><c>Pt</c><c>   1</c></rc>
    <rc><c>Pt</c><c>   1</c></rc>
    <rc><c>Pt</c><c>   1</c></rc>
    <rc><c>Pt</c><c>   1</c></rc>
    <rc><c>Pt</c><c>   1</c></rc>
    <rc><c>Pt</c><c>   1</c></rc>
    <rc><c>Pt</c><c>   1</c></rc>
    <rc><c>Pt</c><c>   1</c></rc>
    <rc><c>Pt</c><c>   1</c></rc>
    <rc><c>Pt</c><c>   1</c></rc>
    <rc><c>Pt</c><c>   1</c></rc>
    <rc><c>Pt</c><c>   1</c></rc>
    <rc><c>Pt</c><c>   1</c></rc>
    <rc><c>Pt</c><c>   1</c></rc>
    <rc><c>Pt</c><c>   1</c></rc>
    <rc><c>O </c><c>   2</c></rc>
    <rc><c>C </c><c>   3</c></rc>
    <rc><c>H </c><c>   4</c></rc>
   </set>
  </array>
  <array name="atomtypes" >
   <dimension dim="1">type</dimension>
   <field type="int">atomspertype</field>
   <field type="string">element</field>
   <field>mass</field>
   <field>valence</field>
   <field type="string">pseudopotential</field>
   <set>
    <rc><c>  64</c><c>Pt</c><c>    195.08000000</c><c>     10.00000000</c><c>  PAW_PBE Pt 04Feb2005                  </c></rc>
    <rc><c>   1</c><c>O </c><c>     16.00000000</c><c>      6.00000000</c><c>  PAW_PBE O 08Apr2002                   </c></rc>
    <rc><c>   1</c><c>C </c><c>     12.01100000</c><c>      4.00000000</c><c>  PAW_PBE C 08Apr2002                   </c></rc>
    <rc><c>   1</c><c>H </c><c>      1.00000000</c><c>      1.00000000</c><c>  PAW_PBE H 15Jun2001                   </c></rc>
   </set>
  </array>
 </atominfo>
 <structure name="initialpos" >
  <crystal>
   <varray name="basis" >
    <v>      11.21440000       0.00000000       0.00000000 </v>
    <v>       5.60720000       9.71195529       0.00000000 </v>
    <v>       0.00000000       0.00000000      31.44560000 </v>
   </varray>
   <i name="volume">   3424.85826052 </i>
   <varray name="rec_basis" >
    <v>       0.08917107      -0.05148294       0.00000000 </v>
    <v>       0.00000000       0.10296588       0.00000000 </v>
    <v>       0.00000000       0.00000000       0.03180095 </v>
   </varray>
  </crystal>
  <varray name="positions" >
   <v>       0.08333000       0.33333000       0.39081000 </v>
   <v>       0.08333000       0.08333000       0.39081000 </v>
   <v>       0.33333000       0.33333000       0.39081000 </v>
   <v>       0.33333000       0.08333000       0.39081000 </v>
   <v>       0.41667000       0.16667000       0.46360000 </v>
   <v>       0.41667000       0.41667000       0.46360000 </v>
   <v>       0.16667000       0.16667000       0.46360000 </v>
   <v>       0.16667000       0.41667000       0.46360000 </v>
   <v>       0.24992021       0.00073788       0.53558213 </v>
   <v>       0.25071799       0.25078149       0.53541258 </v>
   <v>       0.49997823       0.00183639       0.53557957 </v>
   <v>       0.50146160       0.25292383       0.53739454 </v>
   <v>       0.08348913       0.33513523       0.60877191 </v>
   <v>       0.08284342       0.08597852       0.60876949 </v>
   <v>       0.33213481       0.33560058       0.60880712 </v>
   <v>       0.33343322       0.08579564       0.60873840 </v>
   <v>       0.08333000       0.83333000       0.39081000 </v>
   <v>       0.08333000       0.58333000       0.39081000 </v>
   <v>       0.33333000       0.83333000       0.39081000 </v>
   <v>       0.33333000       0.58333000       0.39081000 </v>
   <v>       0.41667000       0.66667000       0.46360000 </v>
   <v>       0.41667000       0.91667000       0.46360000 </v>
   <v>       0.16667000       0.66667000       0.46360000 </v>
   <v>       0.16667000       0.91667000       0.46360000 </v>
   <v>       0.24978862       0.50087083       0.53567888 </v>
   <v>       0.25032204       0.75029350       0.53536412 </v>
   <v>       0.50132975       0.49830243       0.53743516 </v>
   <v>       0.49993351       0.75009970       0.53548555 </v>
   <v>       0.08322605       0.83608822       0.60878273 </v>
   <v>       0.08271076       0.58579598       0.60876551 </v>
   <v>       0.33297619       0.83600911       0.60874760 </v>
   <v>       0.33120321       0.58751032       0.60869195 </v>
   <v>       0.58333000       0.33333000       0.39081000 </v>
   <v>       0.58333000       0.08333000       0.39081000 </v>
   <v>       0.83333000       0.33333000       0.39081000 </v>
   <v>       0.83333000       0.08333000       0.39081000 </v>
   <v>       0.91667000       0.16667000       0.46360000 </v>
   <v>       0.91667000       0.41667000       0.46360000 </v>
   <v>       0.66667000       0.16667000       0.46360000 </v>
   <v>       0.66667000       0.41667000       0.46360000 </v>
   <v>       0.74958145       0.00128574       0.53578231 </v>
   <v>       0.74666373       0.25288134       0.53733126 </v>
   <v>       0.99885064       0.00175608       0.53553852 </v>
   <v>       0.99943382       0.25055113       0.53535621 </v>
   <v>       0.58187897       0.33769881       0.61863714 </v>
   <v>       0.58328860       0.08525110       0.60907362 </v>
   <v>       0.83457696       0.33575062       0.60874891 </v>
   <v>       0.83382764       0.08516497       0.60894330 </v>
   <v>       0.58333000       0.83333000       0.39081000 </v>
   <v>       0.58333000       0.58333000       0.39081000 </v>
   <v>       0.83333000       0.83333000       0.39081000 </v>
   <v>       0.83333000       0.58333000       0.39081000 </v>
   <v>       0.91667000       0.66667000       0.46360000 </v>
   <v>       0.91667000       0.91667000       0.46360000 </v>
   <v>       0.66667000       0.66667000       0.46360000 </v>
   <v>       0.66667000       0.91667000       0.46360000 </v>
   <v>       0.74988387       0.50086992       0.53576907 </v>
   <v>       0.74958262       0.75104704       0.53575285 </v>
   <v>       0.99997922       0.50044658       0.53569906 </v>
   <v>       0.99968050       0.75119192       0.53575323 </v>
   <v>       0.58271828       0.83601753       0.60880555 </v>
   <v>       0.58308648       0.58744663       0.60901926 </v>
   <v>       0.83296839       0.83592610       0.60888365 </v>
   <v>       0.83335734       0.58590630       0.60885814 </v>
   <v>       0.47913154       0.38446010       0.70403567 </v>
   <v>       0.57805905       0.34967734       0.68162642 </v>
   <v>       0.88890501       0.18900117       0.64638501 </v>
  </varray>
  <varray name="selective"  type="logical" >
   <v type="logical" >  F  F  F </v>
   <v type="logical" >  F  F  F </v>
   <v type="logical" >  F  F  F </v>
   <v type="logical" >  F  F  F </v>
   <v type="logical" >  F  F  F </v>
   <v type="logical" >  F  F  F </v>
   <v type="logical" >  F  F  F </v>
   <v type="logical" >  F  F  F </v>
   <v type="logical" >  T  T  T </v>
   <v type="logical" >  T  T  T </v>
   <v type="logical" >  T  T  T </v>
   <v type="logical" >  T  T  T </v>
   <v type="logical" >  T  T  T </v>
   <v type="logical" >  T  T  T </v>
   <v type="logical" >  T  T  T </v>
   <v type="logical" >  T  T  T </v>
   <v type="logical" >  F  F  F </v>
   <v type="logical" >  F  F  F </v>
   <v type="logical" >  F  F  F </v>
   <v type="logical" >  F  F  F </v>
   <v type="logical" >  F  F  F </v>
   <v type="logical" >  F  F  F </v>
   <v type="logical" >  F  F  F </v>
   <v type="logical" >  F  F  F </v>
   <v type="logical" >  T  T  T </v>
   <v type="logical" >  T  T  T </v>
   <v type="logical" >  T  T  T </v>
   <v type="logical" >  T  T  T </v>
   <v type="logical" >  T  T  T </v>
   <v type="logical" >  T  T  T </v>
   <v type="logical" >  T  T  T </v>
   <v type="logical" >  T  T  T </v>
   <v type="logical" >  F  F  F </v>
   <v type="logical" >  F  F  F </v>
   <v type="logical" >  F  F  F </v>
   <v type="logical" >  F  F  F </v>
   <v type="logical" >  F  F  F </v>
   <v type="logical" >  F  F  F </v>
   <v type="logical" >  F  F  F </v>
   <v type="logical" >  F  F  F </v>
   <v type="logical" >  T  T  T </v>
   <v type="logical" >  T  T  T </v>
   <v type="logical" >  T  T  T </v>
   <v type="logical" >  T  T  T </v>
   <v type="logical" >  T  T  T </v>
   <v type="logical" >  T  T  T </v>
   <v type="logical" >  T  T  T </v>
   <v type="logical" >  T  T  T </v>
   <v type="logical" >  F  F  F </v>
   <v type="logical" >  F  F  F </v>
   <v type="logical" >  F  F  F </v>
   <v type="logical" >  F  F  F </v>
   <v type="logical" >  F  F  F </v>
   <v type="logical" >  F  F  F </v>
   <v type="logical" >  F  F  F </v>
   <v type="logical" >  F  F  F </v>
   <v type="logical" >  T  T  T </v>
   <v type="logical" >  T  T  T </v>
   <v type="logical" >  T  T  T </v>
   <v type="logical" >  T  T  T </v>
   <v type="logical" >  T  T  T </v>
   <v type="logical" >  T  T  T </v>
   <v type="logical" >  T  T  T </v>
   <v type="logical" >  T  T  T </v>
   <v type="logical" >  T  T  T </v>
   <v type="logical" >  T  T  T </v>
   <v type="logical" >  T  T  T </v>
  </varray>
  <nose>
   <v>      -3.00000000       0.00000000       0.00010000       0.00010000 </v>
  </nose>
 </structure>
 <calculation>
  <scstep>
   <time name="dav">   12.44   12.48</time>
   <time name="total">   12.47   12.52</time>
   <energy>
    <i name="alphaZ">   1165.16924622 </i>
    <i name="ewald"> 409968.52657964 </i>
    <i name="hartreedc">-458591.94443718 </i>
    <i name="XCdc">    258.14843579 </i>
    <i name="pawpsdc">  45009.11181811 </i>
    <i name="pawaedc"> -43201.36138378 </i>
    <i name="eentropy">      0.00524822 </i>
    <i name="bandstr">   2391.35110510 </i>
    <i name="atom">  47255.03396832 </i>
    <i name="e_fr_energy">   4254.04058044 </i>
    <i name="e_wo_entrp">   4254.03533222 </i>
    <i name="e_0_energy">   4254.03883103 </i>
   </energy>
  </scstep>
  <scstep>
   <time name="dav">   14.74   14.79</time>
   <time name="total">   14.75   14.79</time>
   <energy>
    <i name="e_fr_energy">    -27.34409793 </i>
    <i name="e_wo_entrp">    -27.34559050 </i>
    <i name="e_0_energy">    -27.34459545 </i>
   </energy>
  </scstep>
  <scstep>
   <time name="dav">   13.78   13.82</time>
   <time name="total">   13.78   13.82</time>
   <energy>
    <i name="e_fr_energy">   -397.81097689 </i>
    <i name="e_wo_entrp">   -397.76141929 </i>
    <i name="e_0_energy">   -397.79445769 </i>
   </energy>
  </scstep>
  <scstep>
   <time name="dav">   15.39   15.43</time>
   <time name="total">   15.39   15.43</time>
   <energy>
    <i name="e_fr_energy">   -415.63913785 </i>
    <i name="e_wo_entrp">   -415.55585189 </i>
    <i name="e_0_energy">   -415.61137586 </i>
   </energy>
  </scstep>
  <scstep>
   <time name="dav">   14.76   14.80</time>
   <time name="total">   15.11   15.15</time>
   <energy>
    <i name="e_fr_energy">   -416.17215784 </i>
    <i name="e_wo_entrp">   -416.08812271 </i>
    <i name="e_0_energy">   -416.14414613 </i>
   </energy>
  </scstep>
  <scstep>
   <time name="diag">    1.99    1.99</time>
   <time name="diis">    5.58    5.59</time>
   <time name="orth">    0.50    0.51</time>
   <time name="total">    8.45    8.48</time>
   <energy>
    <i name="e_fr_energy">   -404.84362009 </i>
    <i name="e_wo_entrp">   -404.85112645 </i>
    <i name="e_0_energy">   -404.84612221 </i>
   </energy>
  </scstep>
  <scstep>
   <time name="diag">    1.98    1.99</time>
   <time name="diis">    5.50    5.51</time>
   <time name="orth">    0.51    0.51</time>
   <time name="total">    8.36    8.38</time>
   <energy>
    <i name="e_fr_energy">   -502.27247703 </i>
    <i name="e_wo_entrp">   -502.29778853 </i>
    <i name="e_0_energy">   -502.28091419 </i>
   </energy>
  </scstep>
  <scstep>
   <time name="diag">    1.99    2.00</time>
   <time name="diis">    5.50    5.52</time>
   <time name="orth">    0.51    0.51</time>
   <time name="total">    8.38    8.40</time>
   <energy>
    <i name="e_fr_energy">   -455.05055803 </i>
    <i name="e_wo_entrp">   -455.03798092 </i>
    <i name="e_0_energy">   -455.04636566 </i>
   </energy>
  </scstep>
  <scstep>
   <time name="diag">    1.99    1.99</time>
   <time name="diis">    5.49    5.50</time>
   <time name="orth">    0.51    0.51</time>
   <time name="total">    8.36    8.38</time>
   <energy>
    <i name="e_fr_energy">   -418.64256829 </i>
    <i name="e_wo_entrp">   -418.59387073 </i>
    <i name="e_0_energy">   -418.62633577 </i>
   </energy>
  </scstep>
  <scstep>
   <time name="diag">    1.98    1.99</time>
   <time name="diis">    5.48    5.50</time>
   <time name="orth">    0.51    0.51</time>
   <time name="total">    8.34    8.36</time>
   <energy>
    <i name="e_fr_energy">   -426.88232519 </i>
    <i name="e_wo_entrp">   -426.85256374 </i>
    <i name="e_0_energy">   -426.87240470 </i>
   </energy>
  </scstep>
  <scstep>
   <time name="diag">    1.99    2.00</time>
   <time name="diis">    5.51    5.53</time>
   <time name="orth">    0.51    0.51</time>
   <time name="total">    8.38    8.40</time>
   <energy>
    <i name="e_fr_energy">   -396.61051671 </i>
    <i name="e_wo_entrp">   -396.57977831 </i>
    <i name="e_0_energy">   -396.60027058 </i>
   </energy>
  </scstep>
  <scstep>
   <time name="diag">    1.99    2.00</time>
   <time name="diis">    5.50    5.51</time>
   <time name="orth">    0.50    0.51</time>
   <time name="total">    8.37    8.40</time>
   <energy>
    <i name="e_fr_energy">   -393.72241321 </i>
    <i name="e_wo_entrp">   -393.67857211 </i>
    <i name="e_0_energy">   -393.70779951 </i>
   </energy>
  </scstep>
  <scstep>
   <time name="diag">    2.00    2.00</time>
   <time name="diis">    5.49    5.50</time>
   <time name="orth">    0.50    0.51</time>
   <time name="total">    8.36    8.38</time>
   <energy>
    <i name="e_fr_energy">   -391.56977856 </i>
    <i name="e_wo_entrp">   -391.51522891 </i>
    <i name="e_0_energy">   -391.55159534 </i>
   </energy>
  </scstep>
  <scstep>
   <time name="diag">    2.00    2.00</time>
   <time name="diis">    5.50    5.52</time>
   <time name="orth">    0.51    0.51</time>
   <time name="total">    8.37    8.40</time>
   <energy>
    <i name="e_fr_energy">   -389.79855460 </i>
    <i name="e_wo_entrp">   -389.75408787 </i>
    <i name="e_0_energy">   -389.78373235 </i>
   </energy>
  </scstep>
  <scstep>
   <time name="diag">    1.99    2.00</time>
   <time name="diis">    5.53    5.54</time>
   <time name="orth">    0.51    0.51</time>
   <time name="total">    8.40    8.42</time>
   <energy>
    <i name="e_fr_energy">   -389.91055129 </i>
    <i name="e_wo_entrp">   -389.85125734 </i>
    <i name="e_0_energy">   -389.89078664 </i>
   </energy>
  </scstep>
  <scstep>
   <time name="diag">    1.99    2.00</time>
   <time name="diis">    5.59    5.61</time>
   <time name="orth">    0.51    0.51</time>
   <time name="total">    8.46    8.48</time>
   <energy>
    <i name="e_fr_energy">   -389.84370348 </i>
    <i name="e_wo_entrp">   -389.78331303 </i>
    <i name="e_0_energy">   -389.82357333 </i>
   </energy>
  </scstep>
  <scstep>
   <time name="diag">    1.99    2.00</time>
   <time name="diis">    5.52    5.53</time>
   <time name="orth">    0.51    0.51</time>
   <time name="total">    8.39    8.41</time>
   <energy>
    <i name="e_fr_energy">   -389.66445023 </i>
    <i name="e_wo_entrp">   -389.60582721 </i>
    <i name="e_0_energy">   -389.64490923 </i>
   </energy>
  </scstep>
  <scstep>
   <time name="diag">    2.00    2.00</time>
   <time name="diis">    5.52    5.53</time>
   <time name="orth">    0.51    0.51</time>
   <time name="total">    8.39    8.41</time>
   <energy>
    <i name="e_fr_energy">   -389.53756343 </i>
    <i name="e_wo_entrp">   -389.49055037 </i>
    <i name="e_0_energy">   -389.52189241 </i>
   </energy>
  </scstep>
  <scstep>
   <time name="diag">    1.99    2.00</time>
   <time name="diis">    5.51    5.52</time>
   <time name="orth">    0.51    0.51</time>
   <time name="total">    8.38    8.41</time>
   <energy>
    <i name="e_fr_energy">   -389.50494835 </i>
    <i name="e_wo_entrp">   -389.45597596 </i>
    <i name="e_0_energy">   -389.48862422 </i>
   </energy>
  </scstep>
  <scstep>
   <time name="diag">    2.00    2.00</time>
   <time name="diis">    5.54    5.55</time>
   <time name="orth">    0.51    0.51</time>
   <time name="total">    8.41    8.43</time>
   <energy>
    <i name="e_fr_energy">   -389.50661817 </i>
    <i name="e_wo_entrp">   -389.45429689 </i>
    <i name="e_0_energy">   -389.48917775 </i>
   </energy>
  </scstep>
  <scstep>
   <time name="diag">    2.00    2.00</time>
   <time name="diis">    5.54    5.56</time>
   <time name="orth">    0.51    0.51</time>
   <time name="total">    8.42    8.44</time>
   <energy>
    <i name="e_fr_energy">   -389.50515162 </i>
    <i name="e_wo_entrp">   -389.45362296 </i>
    <i name="e_0_energy">   -389.48797540 </i>
   </energy>
  </scstep>
  <scstep>
   <time name="diag">    2.00    2.00</time>
   <time name="diis">    5.54    5.55</time>
   <time name="orth">    0.51    0.51</time>
   <time name="total">    8.41    8.43</time>
   <energy>
    <i name="e_fr_energy">   -389.49763821 </i>
    <i name="e_wo_entrp">   -389.44840781 </i>
    <i name="e_0_energy">   -389.48122808 </i>
   </energy>
  </scstep>
  <scstep>
   <time name="diag">    1.99    1.99</time>
   <time name="diis">    5.50    5.52</time>
   <time name="orth">    0.51    0.51</time>
   <time name="total">    8.37    8.39</time>
   <energy>
    <i name="e_fr_energy">   -389.48899516 </i>
    <i name="e_wo_entrp">   -389.44178178 </i>
    <i name="e_0_energy">   -389.47325737 </i>
   </energy>
  </scstep>
  <scstep>
   <time name="diag">    1.99    2.00</time>
   <time name="diis">    5.55    5.56</time>
   <time name="orth">    0.51    0.51</time>
   <time name="total">    8.42    8.44</time>
   <energy>
    <i name="e_fr_energy">   -389.48393564 </i>
    <i name="e_wo_entrp">   -389.43860983 </i>
    <i name="e_0_energy">   -389.46882703 </i>
   </energy>
  </scstep>
  <scstep>
   <time name="diag">    1.99    2.00</time>
   <time name="diis">    5.53    5.54</time>
   <time name="orth">    0.51    0.51</time>
   <time name="total">    8.40    8.42</time>
   <energy>
    <i name="e_fr_energy">   -389.48142124 </i>
    <i name="e_wo_entrp">   -389.43597351 </i>
    <i name="e_0_energy">   -389.46627200 </i>
   </energy>
  </scstep>
  <scstep>
   <time name="diag">    1.99    2.00</time>
   <time name="diis">    5.51    5.52</time>
   <time name="orth">    0.51    0.51</time>
   <time name="total">    8.38    8.40</time>
   <energy>
    <i name="e_fr_energy">   -389.47959587 </i>
    <i name="e_wo_entrp">   -389.43463663 </i>
    <i name="e_0_energy">   -389.46460946 </i>
   </energy>
  </scstep>
  <scstep>
   <time name="diag">    1.99    1.99</time>
   <time name="diis">    5.58    5.59</time>
   <time name="orth">    0.51    0.51</time>
   <time name="total">    8.45    8.47</time>
   <energy>
    <i name="e_fr_energy">   -389.47906798 </i>
    <i name="e_wo_entrp">   -389.43439298 </i>
    <i name="e_0_energy">   -389.46417631 </i>
   </energy>
  </scstep>
  <scstep>
   <time name="diag">    1.99    2.00</time>
   <time name="diis">    5.59    5.60</time>
   <time name="orth">    0.51    0.51</time>
   <time name="total">    8.46    8.48</time>
   <energy>
    <i name="e_fr_energy">   -389.47896017 </i>
    <i name="e_wo_entrp">   -389.43468041 </i>
    <i name="e_0_energy">   -389.46420025 </i>
   </energy>
  </scstep>
  <scstep>
   <time name="diag">    2.00    2.00</time>
   <time name="diis">    5.48    5.49</time>
   <time name="orth">    0.51    0.51</time>
   <time name="total">    8.35    8.37</time>
   <energy>
    <i name="e_fr_energy">   -389.47888269 </i>
    <i name="e_wo_entrp">   -389.43489270 </i>
    <i name="e_0_energy">   -389.46421936 </i>
   </energy>
  </scstep>
  <scstep>
   <time name="diag">    1.99    2.00</time>
   <time name="diis">    5.04    5.05</time>
   <time name="orth">    0.51    0.51</time>
   <time name="total">    7.91    7.93</time>
   <energy>
    <i name="e_fr_energy">   -389.47881541 </i>
    <i name="e_wo_entrp">   -389.43484235 </i>
    <i name="e_0_energy">   -389.46415772 </i>
   </energy>
  </scstep>
  <scstep>
   <time name="diag">    1.98    1.99</time>
   <time name="diis">    3.72    3.73</time>
   <time name="orth">    0.51    0.51</time>
   <time name="total">    6.58    6.60</time>
   <energy>
    <i name="e_fr_energy">   -389.47888429 </i>
    <i name="e_wo_entrp">   -389.43487078 </i>
    <i name="e_0_energy">   -389.46421312 </i>
   </energy>
  </scstep>
  <scstep>
   <time name="diag">    1.99    2.00</time>
   <time name="diis">    3.31    3.32</time>
   <time name="orth">    0.51    0.51</time>
   <time name="total">    6.18    6.20</time>
   <energy>
    <i name="e_fr_energy">   -389.47895367 </i>
    <i name="e_wo_entrp">   -389.43487570 </i>
    <i name="e_0_energy">   -389.46426101 </i>
   </energy>
  </scstep>
  <scstep>
   <time name="diag">    2.00    2.00</time>
   <time name="diis">    3.31    3.32</time>
   <time name="orth">    0.51    0.51</time>
   <time name="total">    6.19    6.21</time>
   <energy>
    <i name="e_fr_energy">   -389.47907852 </i>
    <i name="e_wo_entrp">   -389.43486796 </i>
    <i name="e_0_energy">   -389.46434166 </i>
   </energy>
  </scstep>
  <scstep>
   <time name="diag">    1.99    1.99</time>
   <time name="diis">    3.24    3.25</time>
   <time name="orth">    0.51    0.51</time>
   <time name="total">    6.11    6.13</time>
   <energy>
    <i name="e_fr_energy">   -389.47914096 </i>
    <i name="e_wo_entrp">   -389.43490981 </i>
    <i name="e_0_energy">   -389.46439725 </i>
   </energy>
  </scstep>
  <scstep>
   <time name="diag">    1.99    1.99</time>
   <time name="diis">    3.25    3.26</time>
   <time name="orth">    0.51    0.51</time>
   <time name="total">    6.11    6.13</time>
   <energy>
    <i name="e_fr_energy">   -389.47923655 </i>
    <i name="e_wo_entrp">   -389.43502055 </i>
    <i name="e_0_energy">   -389.46449789 </i>
   </energy>
  </scstep>
  <scstep>
   <time name="diag">    1.99    2.00</time>
   <time name="diis">    2.95    2.96</time>
   <time name="orth">    0.51    0.51</time>
   <time name="total">    5.82    5.84</time>
   <energy>
    <i name="e_fr_energy">   -389.47930014 </i>
    <i name="e_wo_entrp">   -389.43508317 </i>
    <i name="e_0_energy">   -389.46456115 </i>
   </energy>
  </scstep>
  <scstep>
   <time name="diag">    1.99    1.99</time>
   <time name="diis">    3.04    3.04</time>
   <time name="orth">    0.51    0.51</time>
   <time name="total">    5.91    5.92</time>
   <energy>
    <i name="e_fr_energy">   -389.47936194 </i>
    <i name="e_wo_entrp">   -389.43514208 </i>
    <i name="e_0_energy">   -389.46462198 </i>
   </energy>
  </scstep>
  <scstep>
   <time name="diag">    2.00    2.00</time>
   <time name="diis">    3.25    3.26</time>
   <time name="orth">    0.51    0.51</time>
   <time name="total">    6.12    6.14</time>
   <energy>
    <i name="e_fr_energy">   -389.47947777 </i>
    <i name="e_wo_entrp">   -389.43523871 </i>
    <i name="e_0_energy">   -389.46473142 </i>
   </energy>
  </scstep>
  <scstep>
   <time name="diag">    1.98    1.99</time>
   <time name="diis">    2.52    2.53</time>
   <time name="orth">    0.51    0.51</time>
   <time name="total">    5.39    5.41</time>
   <energy>
    <i name="e_fr_energy">   -389.47950982 </i>
    <i name="e_wo_entrp">   -389.43527552 </i>
    <i name="e_0_energy">   -389.46476505 </i>
   </energy>
  </scstep>
  <scstep>
   <time name="diag">    1.99    2.00</time>
   <time name="diis">    2.94    2.95</time>
   <time name="orth">    0.51    0.51</time>
   <time name="total">    5.81    5.83</time>
   <energy>
    <i name="e_fr_energy">   -389.47955800 </i>
    <i name="e_wo_entrp">   -389.43533661 </i>
    <i name="e_0_energy">   -389.46481753 </i>
   </energy>
  </scstep>
  <scstep>
   <time name="diag">    1.99    2.00</time>
   <time name="diis">    2.55    2.56</time>
   <time name="orth">    0.51    0.51</time>
   <time name="total">    5.43    5.44</time>
   <energy>
    <i name="e_fr_energy">   -389.47958566 </i>
    <i name="e_wo_entrp">   -389.43536876 </i>
    <i name="e_0_energy">   -389.46484669 </i>
   </energy>
  </scstep>
  <scstep>
   <time name="diag">    1.99    1.99</time>
   <time name="diis">    2.60    2.61</time>
   <time name="orth">    0.51    0.51</time>
   <time name="total">    5.47    5.49</time>
   <energy>
    <i name="e_fr_energy">   -389.47960664 </i>
    <i name="e_wo_entrp">   -389.43539054 </i>
    <i name="e_0_energy">   -389.46486794 </i>
   </energy>
  </scstep>
  <scstep>
   <time name="diag">    1.98    1.98</time>
   <time name="diis">    2.38    2.39</time>
   <time name="orth">    0.51    0.51</time>
   <time name="total">    4.89    4.91</time>
   <energy>
    <i name="alphaZ">   1165.16924622 </i>
    <i name="ewald"> 409968.52657964 </i>
    <i name="hartreedc">-457957.82125381 </i>
    <i name="XCdc">    236.44884142 </i>
    <i name="pawpsdc">  57145.30281183 </i>
    <i name="pawaedc"> -55511.03083376 </i>
    <i name="eentropy">     -0.04421478 </i>
    <i name="bandstr">  -2691.06476048 </i>
    <i name="atom">  47255.03396832 </i>
    <i name="e_fr_energy">   -389.47961540 </i>
    <i name="e_wo_entrp">   -389.43540062 </i>
    <i name="e_0_energy">   -389.46487714 </i>
   </energy>
  </scstep>
  <structure>
   <crystal>
    <varray name="basis" >
     <v>      11.21440000       0.00000000       0.00000000 </v>
     <v>       5.60720000       9.71195529       0.00000000 </v>
     <v>       0.00000000       0.00000000      31.44560000 </v>
    </varray>
    <i name="volume">   3424.85826052 </i>
    <varray name="rec_basis" >
     <v>       0.08917107      -0.05148294       0.00000000 </v>
     <v>       0.00000000       0.10296588       0.00000000 </v>
     <v>       0.00000000       0.00000000       0.03180095 </v>
    </varray>
   </crystal>
   <varray name="positions" >
    <v>       0.08333000       0.33333000       0.39081000 </v>
    <v>       0.08333000       0.08333000       0.39081000 </v>
    <v>       0.33333000       0.33333000       0.39081000 </v>
    <v>       0.33333000       0.08333000       0.39081000 </v>
    <v>       0.41667000       0.16667000       0.46360000 </v>
    <v>       0.41667000       0.41667000       0.46360000 </v>
    <v>       0.16667000       0.16667000       0.46360000 </v>
    <v>       0.16667000       0.41667000       0.46360000 </v>
    <v>       0.24992021       0.00073788       0.53558213 </v>
    <v>       0.25071799       0.25078149       0.53541258 </v>
    <v>       0.49997823       0.00183639       0.53557957 </v>
    <v>       0.50146160       0.25292383       0.53739454 </v>
    <v>       0.08348913       0.33513523       0.60877191 </v>
    <v>       0.08284342       0.08597852       0.60876949 </v>
    <v>       0.33213481       0.33560058       0.60880712 </v>
    <v>       0.33343322       0.08579564       0.60873840 </v>
    <v>       0.08333000       0.83333000       0.39081000 </v>
    <v>       0.08333000       0.58333000       0.39081000 </v>
    <v>       0.33333000       0.83333000       0.39081000 </v>
    <v>       0.33333000       0.58333000       0.39081000 </v>
    <v>       0.41667000       0.66667000       0.46360000 </v>
    <v>       0.41667000       0.91667000       0.46360000 </v>
    <v>       0.16667000       0.66667000       0.46360000 </v>
    <v>       0.16667000       0.91667000       0.46360000 </v>
    <v>       0.24978862       0.50087083       0.53567888 </v>
    <v>       0.25032204       0.75029350       0.53536412 </v>
    <v>       0.50132975       0.49830243       0.53743516 </v>
    <v>       0.49993351       0.75009970       0.53548555 </v>
    <v>       0.08322605       0.83608822       0.60878273 </v>
    <v>       0.08271076       0.58579598       0.60876551 </v>
    <v>       0.33297619       0.83600911       0.60874760 </v>
    <v>       0.33120321       0.58751032       0.60869195 </v>
    <v>       0.58333000       0.33333000       0.39081000 </v>
    <v>       0.58333000       0.08333000       0.39081000 </v>
    <v>       0.83333000       0.33333000       0.39081000 </v>
    <v>       0.83333000       0.08333000       0.39081000 </v>
    <v>       0.91667000       0.16667000       0.46360000 </v>
    <v>       0.91667000       0.41667000       0.46360000 </v>
    <v>       0.66667000       0.16667000       0.46360000 </v>
    <v>       0.66667000       0.41667000       0.46360000 </v>
    <v>       0.74958145       0.00128574       0.53578231 </v>
    <v>       0.74666373       0.25288134       0.53733126 </v>
    <v>       0.99885064       0.00175608       0.53553852 </v>
    <v>       0.99943382       0.25055113       0.53535621 </v>
    <v>       0.58187897       0.33769881       0.61863714 </v>
    <v>       0.58328860       0.08525110       0.60907362 </v>
    <v>       0.83457696       0.33575062       0.60874891 </v>
    <v>       0.83382764       0.08516497       0.60894330 </v>
    <v>       0.58333000       0.83333000       0.39081000 </v>
    <v>       0.58333000       0.58333000       0.39081000 </v>
    <v>       0.83333000       0.83333000       0.39081000 </v>
    <v>       0.83333000       0.58333000       0.39081000 </v>
    <v>       0.91667000       0.66667000       0.46360000 </v>
    <v>       0.91667000       0.91667000       0.46360000 </v>
    <v>       0.66667000       0.66667000       0.46360000 </v>
    <v>       0.66667000       0.91667000       0.46360000 </v>
    <v>       0.74988387       0.50086992       0.53576907 </v>
    <v>       0.74958262       0.75104704       0.53575285 </v>
    <v>       0.99997922       0.50044658       0.53569906 </v>
    <v>       0.99968050       0.75119192       0.53575323 </v>
    <v>       0.58271828       0.83601753       0.60880555 </v>
    <v>       0.58308648       0.58744663       0.60901926 </v>
    <v>       0.83296839       0.83592610       0.60888365 </v>
    <v>       0.83335734       0.58590630       0.60885814 </v>
    <v>       0.47913154       0.38446010       0.70403567 </v>
    <v>       0.57805905       0.34967734       0.68162642 </v>
    <v>       0.88890501       0.18900117       0.64638501 </v>
   </varray>
  </structure>
  <varray name="forces" >
   <v>      -0.00023936      -0.02318268      -0.05144283 </v>
   <v>       0.04077130      -0.02763829      -0.12568467 </v>
   <v>      -0.00449628      -0.01435381      -0.05323991 </v>
   <v>      -0.04536552      -0.03132853      -0.11164678 </v>
   <v>       0.11698993       0.05712658       0.08789340 </v>
   <v>       0.10318303      -0.03517949       0.26115239 </v>
   <v>       0.03113138      -0.01867837       0.00833350 </v>
   <v>       0.01931507       0.04413105       0.01478990 </v>
   <v>      -0.07054410       0.03902693       0.06378824 </v>
   <v>      -0.00894357       0.00215016       0.02501465 </v>
   <v>      -0.00511048      -0.02101757      -0.02569255 </v>
   <v>       0.04367983       0.02942573       0.08667290 </v>
   <v>       0.14497377       0.07171730      -0.03950248 </v>
   <v>       0.25523696      -0.16617647       0.20499172 </v>
   <v>      -0.08085169       0.00265130       0.00022721 </v>
   <v>      -0.00555749       0.00544915      -0.00630437 </v>
   <v>       0.01746683       0.00964755      -0.05032048 </v>
   <v>       0.00754074      -0.00706387      -0.04655530 </v>
   <v>       0.00519842       0.05776419      -0.11632249 </v>
   <v>       0.00895743       0.00414403      -0.05457985 </v>
   <v>       0.01022921      -0.09364806       0.06426936 </v>
   <v>       0.04036536      -0.01031633       0.03079141 </v>
   <v>      -0.02380418      -0.01686104       0.01289077 </v>
   <v>       0.02114210       0.01193748       0.02143389 </v>
   <v>      -0.00367446      -0.00109074       0.00142802 </v>
   <v>      -0.00243132      -0.00036839       0.02121851 </v>
   <v>      -0.01205360      -0.04044742       0.03535401 </v>
   <v>       0.00388692       0.00543995      -0.02651241 </v>
   <v>      -0.00568049      -0.14103832      -0.03057415 </v>
   <v>      -0.01359552       0.00890646       0.00365065 </v>
   <v>      -0.01548150      -0.00198865      -0.00884442 </v>
   <v>      -0.04385870       0.06733805      -0.00571900 </v>
   <v>       0.00264553      -0.00290541      -0.03852381 </v>
   <v>      -0.02964411      -0.00441197      -0.05042881 </v>
   <v>       0.00534377      -0.02483639      -0.06769839 </v>
   <v>       0.02807771       0.00452505      -0.06586281 </v>
   <v>      -0.08005401       0.04497042       0.06300021 </v>
   <v>      -0.03407273       0.05247327       0.00955707 </v>
   <v>      -0.00425983       0.08506513       0.24822971 </v>
   <v>      -0.06598406      -0.00868848       0.26047650 </v>
   <v>       0.10596992       0.04788915       0.10662061 </v>
   <v>      -0.02904166       0.01591152      -0.19101166 </v>
   <v>       0.02032826      -0.03821849      -0.09683927 </v>
   <v>       0.03822634       0.00688327      -0.09211699 </v>
   <v>       0.34031075      -0.04205986       0.13129385 </v>
   <v>      -0.08427430      -0.12655567      -0.03866086 </v>
   <v>       0.08571996       0.00019638       0.65765423 </v>
   <v>      -0.03866605      -0.12691590       0.53236486 </v>
   <v>      -0.03057574       0.02519407      -0.11318239 </v>
   <v>      -0.01236470       0.01888408      -0.04515128 </v>
   <v>      -0.00258745       0.00081684      -0.03658097 </v>
   <v>      -0.00315637      -0.00450552      -0.03378928 </v>
   <v>       0.00408311       0.00967800       0.08400515 </v>
   <v>      -0.04405215       0.02223578       0.02421235 </v>
   <v>       0.01274736       0.05699187      -0.03138674 </v>
   <v>      -0.01555838      -0.01305975       0.00287303 </v>
   <v>       0.00129162      -0.12959795       0.12461611 </v>
   <v>      -0.00133146      -0.00350643      -0.01180352 </v>
   <v>       0.00301676      -0.00907380       0.00095126 </v>
   <v>       0.01203965      -0.01529481      -0.00426980 </v>
   <v>      -0.00665762      -0.00087369      -0.00161754 </v>
   <v>       0.07218627       0.14596080      -0.03593808 </v>
   <v>       0.00324920       0.00153031      -0.03348932 </v>
   <v>      -0.00252011       0.01457487      -0.03953070 </v>
   <v>       2.93670094      -0.98250881      -0.84249669 </v>
   <v>      -3.69082895       1.15434743       0.42974280 </v>
   <v>      -0.02468749       0.05840681      -0.99617770 </v>
  </varray>
  <varray name="stress" >
   <v>     -21.12357508      -0.60998020      -0.87155430 </v>
   <v>      -0.60998020     -21.86000924       0.03388581 </v>
   <v>      -0.87155430       0.03388581     -19.73610595 </v>
  </varray>
  <energy>
   <i name="e_fr_energy">   -389.47961540 </i>
   <i name="e_wo_entrp">   -389.46487714 </i>
   <i name="e_0_energy">     -0.04421478 </i>
  </energy>
  <time name="totalsc">  361.39  362.38</time>
 </calculation>
 <calculation>
  <scstep>
   <time name="dav">   12.48   12.51</time>
   <time name="total">   12.85   12.89</time>
   <energy>
    <i name="alphaZ">   1165.16924622 </i>
    <i name="ewald"> 409956.33355186 </i>
    <i name="hartreedc">-457900.04835137 </i>
    <i name="XCdc">    237.82179155 </i>
    <i name="pawpsdc">  57145.30762505 </i>
    <i name="pawaedc"> -55511.03572037 </i>
    <i name="eentropy">     -0.04153167 </i>
    <i name="bandstr">  -2731.44699528 </i>
    <i name="atom">  47255.03396832 </i>
    <i name="e_fr_energy">   -382.90641569 </i>
    <i name="e_wo_entrp">   -382.86488403 </i>
    <i name="e_0_energy">   -382.89257180 </i>
   </energy>
  </scstep>
  <scstep>
   <time name="diag">    1.99    2.00</time>
   <time name="diis">    5.68    5.70</time>
   <time name="orth">    0.51    0.51</time>
   <time name="total">    8.56    8.58</time>
   <energy>
    <i name="e_fr_energy">   -384.37624776 </i>
    <i name="e_wo_entrp">   -384.32501661 </i>
    <i name="e_0_energy">   -384.35917071 </i>
   </energy>
  </scstep>
  <scstep>
   <time name="diag">    2.00    2.00</time>
   <time name="diis">    5.49    5.50</time>
   <time name="orth">    0.51    0.51</time>
   <time name="total">    8.36    8.38</time>
   <energy>
    <i name="e_fr_energy">   -389.56288016 </i>
    <i name="e_wo_entrp">   -389.55921623 </i>
    <i name="e_0_energy">   -389.56165885 </i>
   </energy>
  </scstep>
  <scstep>
   <time name="diag">    2.01    2.01</time>
   <time name="diis">    5.53    5.54</time>
   <time name="orth">    0.51    0.51</time>
   <time name="total">    8.41    8.43</time>
   <energy>
    <i name="e_fr_energy">   -383.90116097 </i>
    <i name="e_wo_entrp">   -383.85901250 </i>
    <i name="e_0_energy">   -383.88711148 </i>
   </energy>
  </scstep>
  <scstep>
   <time name="diag">    2.00    2.01</time>
   <time name="diis">    5.50    5.51</time>
   <time name="orth">    0.51    0.51</time>
   <time name="total">    8.38    8.40</time>
   <energy>
    <i name="e_fr_energy">   -384.07758022 </i>
    <i name="e_wo_entrp">   -384.03916288 </i>
    <i name="e_0_energy">   -384.06477444 </i>
   </energy>
  </scstep>
  <scstep>
   <time name="diag">    1.99    2.00</time>
   <time name="diis">    5.51    5.53</time>
   <time name="orth">    0.51    0.51</time>
   <time name="total">    8.38    8.41</time>
   <energy>
    <i name="e_fr_energy">   -383.79550324 </i>
    <i name="e_wo_entrp">   -383.75595600 </i>
    <i name="e_0_energy">   -383.78232082 </i>
   </energy>
  </scstep>
  <scstep>
   <time name="diag">    2.00    2.01</time>
   <time name="diis">    5.52    5.53</time>
   <time name="orth">    0.51    0.51</time>
   <time name="total">    8.40    8.43</time>
   <energy>
    <i name="e_fr_energy">   -383.73343911 </i>
    <i name="e_wo_entrp">   -383.69178295 </i>
    <i name="e_0_energy">   -383.71955372 </i>
   </energy>
  </scstep>
  <scstep>
   <time name="diag">    2.00    2.00</time>
   <time name="diis">    5.50    5.52</time>
   <time name="orth">    0.51    0.51</time>
   <time name="total">    8.37    8.40</time>
   <energy>
    <i name="e_fr_energy">   -383.72182099 </i>
    <i name="e_wo_entrp">   -383.67726592 </i>
    <i name="e_0_energy">   -383.70696930 </i>
   </energy>
  </scstep>
  <scstep>
   <time name="diag">    2.00    2.01</time>
   <time name="diis">    5.53    5.55</time>
   <time name="orth">    0.51    0.51</time>
   <time name="total">    8.41    8.43</time>
   <energy>
    <i name="e_fr_energy">   -383.71482917 </i>
    <i name="e_wo_entrp">   -383.67254727 </i>
    <i name="e_0_energy">   -383.70073521 </i>
   </energy>
  </scstep>
  <scstep>
   <time name="diag">    2.00    2.01</time>
   <time name="diis">    5.52    5.53</time>
   <time name="orth">    0.51    0.51</time>
   <time name="total">    8.40    8.42</time>
   <energy>
    <i name="e_fr_energy">   -383.71060126 </i>
    <i name="e_wo_entrp">   -383.66708727 </i>
    <i name="e_0_energy">   -383.69609659 </i>
   </energy>
  </scstep>
  <scstep>
   <time name="diag">    2.00    2.00</time>
   <time name="diis">    5.53    5.54</time>
   <time name="orth">    0.51    0.51</time>
   <time name="total">    8.40    8.42</time>
   <energy>
    <i name="e_fr_energy">   -383.70957023 </i>
    <i name="e_wo_entrp">   -383.66638291 </i>
    <i name="e_0_energy">   -383.69517445 </i>
   </energy>
  </scstep>
  <scstep>
   <time name="diag">    2.00    2.01</time>
   <time name="diis">    5.52    5.53</time>
   <time name="orth">    0.51    0.51</time>
   <time name="total">    8.40    8.42</time>
   <energy>
    <i name="e_fr_energy">   -383.70874865 </i>
    <i name="e_wo_entrp">   -383.66591450 </i>
    <i name="e_0_energy">   -383.69447060 </i>
   </energy>
  </scstep>
  <scstep>
   <time name="diag">    2.00    2.00</time>
   <time name="diis">    5.55    5.56</time>
   <time name="orth">    0.51    0.51</time>
   <time name="total">    8.42    8.45</time>
   <energy>
    <i name="e_fr_energy">   -383.70864283 </i>
    <i name="e_wo_entrp">   -383.66524289 </i>
    <i name="e_0_energy">   -383.69417618 </i>
   </energy>
  </scstep>
  <scstep>
   <time name="diag">    2.01    2.01</time>
   <time name="diis">    5.56    5.57</time>
   <time name="orth">    0.51    0.51</time>
   <time name="total">    8.44    8.46</time>
   <energy>
    <i name="e_fr_energy">   -383.70880023 </i>
    <i name="e_wo_entrp">   -383.66570108 </i>
    <i name="e_0_energy">   -383.69443385 </i>
   </energy>
  </scstep>
  <scstep>
   <time name="diag">    2.00    2.00</time>
   <time name="diis">    5.58    5.59</time>
   <time name="orth">    0.51    0.51</time>
   <time name="total">    8.46    8.49</time>
   <energy>
    <i name="e_fr_energy">   -383.70904435 </i>
    <i name="e_wo_entrp">   -383.66606456 </i>
    <i name="e_0_energy">   -383.69471775 </i>
   </energy>
  </scstep>
  <scstep>
   <time name="diag">    2.00    2.01</time>
   <time name="diis">    5.16    5.17</time>
   <time name="orth">    0.51    0.51</time>
   <time name="total">    8.04    8.07</time>
   <energy>
    <i name="e_fr_energy">   -383.70914628 </i>
    <i name="e_wo_entrp">   -383.66573906 </i>
    <i name="e_0_energy">   -383.69467720 </i>
   </energy>
  </scstep>
  <scstep>
   <time name="diag">    1.99    2.00</time>
   <time name="diis">    4.21    4.22</time>
   <time name="orth">    0.51    0.51</time>
   <time name="total">    7.08    7.10</time>
   <energy>
    <i name="e_fr_energy">   -383.70941938 </i>
    <i name="e_wo_entrp">   -383.66638889 </i>
    <i name="e_0_energy">   -383.69507589 </i>
   </energy>
  </scstep>
  <scstep>
   <time name="diag">    2.00    2.01</time>
   <time name="diis">    4.19    4.21</time>
   <time name="orth">    0.51    0.51</time>
   <time name="total">    7.07    7.10</time>
   <energy>
    <i name="e_fr_energy">   -383.70984557 </i>
    <i name="e_wo_entrp">   -383.66662551 </i>
    <i name="e_0_energy">   -383.69543889 </i>
   </energy>
  </scstep>
  <scstep>
   <time name="diag">    2.00    2.00</time>
   <time name="diis">    4.12    4.13</time>
   <time name="orth">    0.51    0.51</time>
   <time name="total">    7.00    7.02</time>
   <energy>
    <i name="e_fr_energy">   -383.71032045 </i>
    <i name="e_wo_entrp">   -383.66720549 </i>
    <i name="e_0_energy">   -383.69594880 </i>
   </energy>
  </scstep>
  <scstep>
   <time name="diag">    2.00    2.01</time>
   <time name="diis">    3.46    3.47</time>
   <time name="orth">    0.51    0.51</time>
   <time name="total">    6.33    6.35</time>
   <energy>
    <i name="e_fr_energy">   -383.71050600 </i>
    <i name="e_wo_entrp">   -383.66738482 </i>
    <i name="e_0_energy">   -383.69613228 </i>
   </energy>
  </scstep>
  <scstep>
   <time name="diag">    1.99    2.00</time>
   <time name="diis">    3.35    3.36</time>
   <time name="orth">    0.51    0.51</time>
   <time name="total">    6.22    6.24</time>
   <energy>
    <i name="e_fr_energy">   -383.71068985 </i>
    <i name="e_wo_entrp">   -383.66754968 </i>
    <i name="e_0_energy">   -383.69630979 </i>
   </energy>
  </scstep>
  <scstep>
   <time name="diag">    2.00    2.00</time>
   <time name="diis">    3.48    3.49</time>
   <time name="orth">    0.51    0.51</time>
   <time name="total">    6.36    6.38</time>
   <energy>
    <i name="e_fr_energy">   -383.71102514 </i>
    <i name="e_wo_entrp">   -383.66788621 </i>
    <i name="e_0_energy">   -383.69664550 </i>
   </energy>
  </scstep>
  <scstep>
   <time name="diag">    2.00    2.01</time>
   <time name="diis">    3.07    3.07</time>
   <time name="orth">    0.51    0.51</time>
   <time name="total">    5.95    5.97</time>
   <energy>
    <i name="e_fr_energy">   -383.71115053 </i>
    <i name="e_wo_entrp">   -383.66800541 </i>
    <i name="e_0_energy">   -383.69676882 </i>
   </energy>
  </scstep>
  <scstep>
   <time name="diag">    2.00    2.00</time>
   <time name="diis">    3.33    3.35</time>
   <time name="orth">    0.51    0.51</time>
   <time name="total">    6.21    6.23</time>
   <energy>
    <i name="e_fr_energy">   -383.71140298 </i>
    <i name="e_wo_entrp">   -383.66826131 </i>
    <i name="e_0_energy">   -383.69702242 </i>
   </energy>
  </scstep>
  <scstep>
   <time name="diag">    1.99    1.99</time>
   <time name="diis">    2.85    2.85</time>
   <time name="orth">    0.51    0.51</time>
   <time name="total">    5.71    5.73</time>
   <energy>
    <i name="e_fr_energy">   -383.71149127 </i>
    <i name="e_wo_entrp">   -383.66834610 </i>
    <i name="e_0_energy">   -383.69710955 </i>
   </energy>
  </scstep>
  <scstep>
   <time name="diag">    1.99    2.00</time>
   <time name="diis">    2.73    2.73</time>
   <time name="orth">    0.51    0.51</time>
   <time name="total">    5.59    5.61</time>
   <energy>
    <i name="e_fr_energy">   -383.71153607 </i>
    <i name="e_wo_entrp">   -383.66839142 </i>
    <i name="e_0_energy">   -383.69715452 </i>
   </energy>
  </scstep>
  <scstep>
   <time name="diag">    2.00    2.00</time>
   <time name="diis">    2.94    2.95</time>
   <time name="orth">    0.51    0.51</time>
   <time name="total">    5.82    5.84</time>
   <energy>
    <i name="e_fr_energy">   -383.71161779 </i>
    <i name="e_wo_entrp">   -383.66847577 </i>
    <i name="e_0_energy">   -383.69723712 </i>
   </energy>
  </scstep>
  <scstep>
   <time name="diag">    1.99    2.00</time>
   <time name="diis">    2.57    2.58</time>
   <time name="orth">    0.51    0.51</time>
   <time name="total">    5.44    5.46</time>
   <energy>
    <i name="e_fr_energy">   -383.71166311 </i>
    <i name="e_wo_entrp">   -383.66852301 </i>
    <i name="e_0_energy">   -383.69728308 </i>
   </energy>
  </scstep>
  <scstep>
   <time name="diag">    1.99    2.00</time>
   <time name="diis">    2.80    2.80</time>
   <time name="orth">    0.51    0.51</time>
   <time name="total">    5.67    5.68</time>
   <energy>
    <i name="e_fr_energy">   -383.71171603 </i>
    <i name="e_wo_entrp">   -383.66858123 </i>
    <i name="e_0_energy">   -383.69733776 </i>
   </energy>
  </scstep>
  <scstep>
   <time name="diag">    1.99    2.00</time>
   <time name="diis">    2.37    2.37</time>
   <time name="orth">    0.51    0.51</time>
   <time name="total">    5.24    5.25</time>
   <energy>
    <i name="e_fr_energy">   -383.71173584 </i>
    <i name="e_wo_entrp">   -383.66860202 </i>
    <i name="e_0_energy">   -383.69735790 </i>
   </energy>
  </scstep>
  <scstep>
   <time name="diag">    2.00    2.00</time>
   <time name="diis">    2.31    2.32</time>
   <time name="orth">    0.51    0.51</time>
   <time name="total">    5.19    5.20</time>
   <energy>
    <i name="e_fr_energy">   -383.71174910 </i>
    <i name="e_wo_entrp">   -383.66861424 </i>
    <i name="e_0_energy">   -383.69737081 </i>
   </energy>
  </scstep>
  <scstep>
   <time name="diag">    1.99    2.00</time>
   <time name="diis">    2.42    2.43</time>
   <time name="orth">    0.51    0.51</time>
   <time name="total">    5.30    5.32</time>
   <energy>
    <i name="e_fr_energy">   -383.71176392 </i>
    <i name="e_wo_entrp">   -383.66862921 </i>
    <i name="e_0_energy">   -383.69738569 </i>
   </energy>
  </scstep>
  <scstep>
   <time name="diag">    1.99    2.00</time>
   <time name="diis">    2.25    2.25</time>
   <time name="orth">    0.51    0.51</time>
   <time name="total">    4.78    4.79</time>
   <energy>
    <i name="alphaZ">   1165.16924622 </i>
    <i name="ewald"> 409956.33355186 </i>
    <i name="hartreedc">-458024.00145936 </i>
    <i name="XCdc">    238.93772127 </i>
    <i name="pawpsdc">  57631.38617419 </i>
    <i name="pawaedc"> -55997.86193386 </i>
    <i name="eentropy">     -0.04313581 </i>
    <i name="bandstr">  -2608.66590455 </i>
    <i name="atom">  47255.03396832 </i>
    <i name="e_fr_energy">   -383.71177171 </i>
    <i name="e_wo_entrp">   -383.66863590 </i>
    <i name="e_0_energy">   -383.69739311 </i>
   </energy>
  </scstep>
  <structure>
   <crystal>
    <varray name="basis" >
     <v>      11.21440000       0.00000000       0.00000000 </v>
     <v>       5.60720000       9.71195529       0.00000000 </v>
     <v>       0.00000000       0.00000000      31.44560000 </v>
    </varray>
    <i name="volume">   3424.85826052 </i>
    <varray name="rec_basis" >
     <v>       0.08917107      -0.05148294       0.00000000 </v>
     <v>       0.00000000       0.10296588       0.00000000 </v>
     <v>       0.00000000       0.00000000       0.03180095 </v>
    </varray>
   </crystal>
   <varray name="positions" >
    <v>       0.08333000       0.33333000       0.39081000 </v>
    <v>       0.08333000       0.08333000       0.39081000 </v>
    <v>       0.33333000       0.33333000       0.39081000 </v>
    <v>       0.33333000       0.08333000       0.39081000 </v>
    <v>       0.41667000       0.16667000       0.46360000 </v>
    <v>       0.41667000       0.41667000       0.46360000 </v>
    <v>       0.16667000       0.16667000       0.46360000 </v>
    <v>       0.16667000       0.41667000       0.46360000 </v>
    <v>       0.24951981       0.00093174       0.53567999 </v>
    <v>       0.25067418       0.25079217       0.53545096 </v>
    <v>       0.50000845       0.00173199       0.53554016 </v>
    <v>       0.50157642       0.25306999       0.53752751 </v>
    <v>       0.08393467       0.33549147       0.60871131 </v>
    <v>       0.08435414       0.08515307       0.60908399 </v>
    <v>       0.33178041       0.33561375       0.60880747 </v>
    <v>       0.33339578       0.08582270       0.60872873 </v>
    <v>       0.08333000       0.83333000       0.39081000 </v>
    <v>       0.08333000       0.58333000       0.39081000 </v>
    <v>       0.33333000       0.83333000       0.39081000 </v>
    <v>       0.33333000       0.58333000       0.39081000 </v>
    <v>       0.41667000       0.66667000       0.46360000 </v>
    <v>       0.41667000       0.91667000       0.46360000 </v>
    <v>       0.16667000       0.66667000       0.46360000 </v>
    <v>       0.16667000       0.91667000       0.46360000 </v>
    <v>       0.24977552       0.50086541       0.53568107 </v>
    <v>       0.25031249       0.75029167       0.53539667 </v>
    <v>       0.50137835       0.49810151       0.53748940 </v>
    <v>       0.49993672       0.75012672       0.53544488 </v>
    <v>       0.08355190       0.83538763       0.60873582 </v>
    <v>       0.08263016       0.58584022       0.60877111 </v>
    <v>       0.33291453       0.83599923       0.60873403 </v>
    <v>       0.33084729       0.58784481       0.60868318 </v>
    <v>       0.58333000       0.33333000       0.39081000 </v>
    <v>       0.58333000       0.08333000       0.39081000 </v>
    <v>       0.83333000       0.33333000       0.39081000 </v>
    <v>       0.83333000       0.08333000       0.39081000 </v>
    <v>       0.91667000       0.16667000       0.46360000 </v>
    <v>       0.91667000       0.41667000       0.46360000 </v>
    <v>       0.66667000       0.16667000       0.46360000 </v>
    <v>       0.66667000       0.41667000       0.46360000 </v>
    <v>       0.74991838       0.00152362       0.53594588 </v>
    <v>       0.74649928       0.25296038       0.53703821 </v>
    <v>       0.99903301       0.00156623       0.53538995 </v>
    <v>       0.99958117       0.25058532       0.53521489 </v>
    <v>       0.58344740       0.33748989       0.61883857 </v>
    <v>       0.58324039       0.08462246       0.60901431 </v>
    <v>       0.83494522       0.33575160       0.60975785 </v>
    <v>       0.83397652       0.08453453       0.60976003 </v>
    <v>       0.58333000       0.83333000       0.39081000 </v>
    <v>       0.58333000       0.58333000       0.39081000 </v>
    <v>       0.83333000       0.83333000       0.39081000 </v>
    <v>       0.83333000       0.58333000       0.39081000 </v>
    <v>       0.91667000       0.66667000       0.46360000 </v>
    <v>       0.91667000       0.91667000       0.46360000 </v>
    <v>       0.66667000       0.66667000       0.46360000 </v>
    <v>       0.66667000       0.91667000       0.46360000 </v>
    <v>       0.75021130       0.50022617       0.53596025 </v>
    <v>       0.74958560       0.75102962       0.53573474 </v>
    <v>       0.00001473       0.50040151       0.53570052 </v>
    <v>       0.99977028       0.75111594       0.53574668 </v>
    <v>       0.58269181       0.83601319       0.60880307 </v>
    <v>       0.58303450       0.58817167       0.60896413 </v>
    <v>       0.83297857       0.83593370       0.60883227 </v>
    <v>       0.83331030       0.58597870       0.60879749 </v>
    <v>       0.49420501       0.37957964       0.70274314 </v>
    <v>       0.55931464       0.35541138       0.68228572 </v>
    <v>       0.88865375       0.18929130       0.64485671 </v>
   </varray>
  </structure>
  <varray name="forces" >
   <v>      -0.00132012      -0.02928422      -0.05508747 </v>
   <v>       0.03672661      -0.02453667      -0.12943345 </v>
   <v>      -0.00684434      -0.00968021      -0.05727033 </v>
   <v>      -0.04238466      -0.03551552      -0.12000027 </v>
   <v>       0.11336615       0.06190927       0.10340356 </v>
   <v>       0.10356083      -0.03999661       0.26676360 </v>
   <v>       0.03540940      -0.02948806      -0.01765135 </v>
   <v>       0.01806492       0.04121178       0.01178070 </v>
   <v>      -0.02130077       0.01696153       0.02776369 </v>
   <v>       0.00913462      -0.01189646      -0.01662823 </v>
   <v>       0.00489129      -0.00558158      -0.02940554 </v>
   <v>       0.00622884       0.00201619       0.10559763 </v>
   <v>       0.07926123       0.04431738      -0.03199483 </v>
   <v>       0.17761302      -0.11599203       0.09069680 </v>
   <v>      -0.06285081       0.00108638      -0.01176569 </v>
   <v>       0.00454183       0.01030825       0.01498391 </v>
   <v>       0.02242121       0.01382386      -0.05363466 </v>
   <v>       0.00963117      -0.00716442      -0.04505886 </v>
   <v>       0.01018573       0.05889429      -0.12185799 </v>
   <v>       0.00545436       0.00611556      -0.05725873 </v>
   <v>       0.00662335      -0.09570439       0.07665103 </v>
   <v>       0.02062402       0.00264458       0.04588473 </v>
   <v>      -0.02402819      -0.01625212       0.00932442 </v>
   <v>       0.03449313       0.01567567       0.00002670 </v>
   <v>       0.00570606      -0.00987744       0.00967056 </v>
[...]
       <r>   -20.9698     0.0000     2.0000 </r>
       <r>   -20.8633     0.0000     2.0000 </r>
       <r>   -20.7567     0.0000     2.0000 </r>
       <r>   -20.6502     0.0000     2.0000 </r>
       <r>   -20.5436     0.0000     2.0000 </r>
       <r>   -20.4371     0.0000     2.0000 </r>
       <r>   -20.3306     0.0000     2.0000 </r>
       <r>   -20.2240     0.0000     2.0000 </r>
       <r>   -20.1175     0.0000     2.0000 </r>
       <r>   -20.0110     0.0000     2.0000 </r>
       <r>   -19.9044     0.0000     2.0000 </r>
       <r>   -19.7979     0.0000     2.0000 </r>
       <r>   -19.6913     0.0000     2.0000 </r>
       <r>   -19.5848     0.0000     2.0000 </r>
       <r>   -19.4783     0.0000     2.0000 </r>
       <r>   -19.3717     0.0000     2.0000 </r>
       <r>   -19.2652     0.0000     2.0000 </r>
       <r>   -19.1586     0.0000     2.0000 </r>
       <r>   -19.0521     0.0000     2.0000 </r>
       <r>   -18.9456     0.0000     2.0000 </r>
       <r>   -18.8390     0.0000     2.0000 </r>
       <r>   -18.7325     0.0000     2.0000 </r>
       <r>   -18.6260     0.0000     2.0000 </r>
       <r>   -18.5194     0.0000     2.0000 </r>
       <r>   -18.4129     0.0000     2.0000 </r>
       <r>   -18.3063     0.0000     2.0000 </r>
       <r>   -18.1998     0.0000     2.0000 </r>
       <r>   -18.0933     0.0000     2.0000 </r>
       <r>   -17.9867     0.0000     2.0000 </r>
       <r>   -17.8802     0.0000     2.0000 </r>
       <r>   -17.7737     0.0000     2.0000 </r>
       <r>   -17.6671     0.0000     2.0000 </r>
       <r>   -17.5606     0.0000     2.0000 </r>
       <r>   -17.4540     0.0000     2.0000 </r>
       <r>   -17.3475     0.0000     2.0000 </r>
       <r>   -17.2410     0.0000     2.0000 </r>
       <r>   -17.1344     0.0000     2.0000 </r>
       <r>   -17.0279     0.0000     2.0000 </r>
       <r>   -16.9213     0.0000     2.0000 </r>
       <r>   -16.8148     0.0000     2.0000 </r>
       <r>   -16.7083     0.0000     2.0000 </r>
       <r>   -16.6017     0.0000     2.0000 </r>
       <r>   -16.4952     0.0000     2.0000 </r>
       <r>   -16.3887     0.0000     2.0000 </r>
       <r>   -16.2821     0.0000     2.0000 </r>
       <r>   -16.1756     0.0000     2.0000 </r>
       <r>   -16.0690     0.0000     2.0000 </r>
       <r>   -15.9625     0.0000     2.0000 </r>
       <r>   -15.8560     0.0000     2.0000 </r>
       <r>   -15.7494     0.0000     2.0000 </r>
       <r>   -15.6429     0.0000     2.0000 </r>
       <r>   -15.5363     0.0000     2.0000 </r>
       <r>   -15.4298     0.0000     2.0000 </r>
       <r>   -15.3233     0.0000     2.0000 </r>
       <r>   -15.2167     0.0000     2.0000 </r>
       <r>   -15.1102     0.0000     2.0000 </r>
       <r>   -15.0037     0.0000     2.0000 </r>
       <r>   -14.8971     0.0000     2.0000 </r>
       <r>   -14.7906     0.0000     2.0000 </r>
       <r>   -14.6840     0.0000     2.0000 </r>
       <r>   -14.5775     0.0000     2.0000 </r>
       <r>   -14.4710     0.0000     2.0000 </r>
       <r>   -14.3644     0.0000     2.0000 </r>
       <r>   -14.2579     0.0000     2.0000 </r>
       <r>   -14.1514     0.0000     2.0000 </r>
       <r>   -14.0448     0.0000     2.0000 </r>
       <r>   -13.9383     0.0000     2.0000 </r>
       <r>   -13.8317     0.0000     2.0000 </r>
       <r>   -13.7252     0.0000     2.0000 </r>
       <r>   -13.6187     0.0000     2.0000 </r>
       <r>   -13.5121     0.0000     2.0000 </r>
       <r>   -13.4056     0.0000     2.0000 </r>
       <r>   -13.2990     0.0000     2.0000 </r>
       <r>   -13.1925     0.0000     2.0000 </r>
       <r>   -13.0860     0.0000     2.0000 </r>
       <r>   -12.9794     0.0000     2.0000 </r>
       <r>   -12.8729     0.0000     2.0000 </r>
       <r>   -12.7664     0.0000     2.0000 </r>
       <r>   -12.6598     0.0000     2.0000 </r>
       <r>   -12.5533     0.0000     2.0000 </r>
       <r>   -12.4467     0.0000     2.0000 </r>
       <r>   -12.3402     0.0000     2.0000 </r>
       <r>   -12.2337     0.0000     2.0000 </r>
       <r>   -12.1271     0.0000     2.0000 </r>
       <r>   -12.0206     0.0000     2.0000 </r>
       <r>   -11.9140    -0.0000     2.0000 </r>
       <r>   -11.8075    -0.0000     2.0000 </r>
       <r>   -11.7010    -0.0000     2.0000 </r>
       <r>   -11.5944    -0.0000     2.0000 </r>
       <r>   -11.4879    -0.0000     2.0000 </r>
       <r>   -11.3814    -0.0006     1.9999 </r>
       <r>   -11.2748    -0.0987     1.9894 </r>
       <r>   -11.1683    -0.4639     1.9400 </r>
       <r>   -11.0617    10.0916     3.0151 </r>
       <r>   -10.9552     9.8297     4.0624 </r>
       <r>   -10.8487    -0.4923     4.0099 </r>
       <r>   -10.7421    -0.0927     4.0001 </r>
       <r>   -10.6356    -0.0005     4.0000 </r>
       <r>   -10.5291    -0.0000     4.0000 </r>
       <r>   -10.4225    -0.0015     3.9998 </r>
       <r>   -10.3160    -0.0383     3.9958 </r>
       <r>   -10.2094     0.1569     4.0125 </r>
       <r>   -10.1029     1.6499     4.1883 </r>
       <r>    -9.9964     5.4512     4.7690 </r>
       <r>    -9.8898     0.9739     4.8728 </r>
       <r>    -9.7833     3.8054     5.2782 </r>
       <r>    -9.6767     6.4422     5.9645 </r>
       <r>    -9.5702     3.9231     6.3825 </r>
       <r>    -9.4637    -0.3530     6.3449 </r>
       <r>    -9.3571     2.2893     6.5888 </r>
       <r>    -9.2506    10.2998     7.6861 </r>
       <r>    -9.1441     3.0583     8.0119 </r>
       <r>    -9.0375     5.3134     8.5780 </r>
       <r>    -8.9310     3.3065     8.9303 </r>
       <r>    -8.8244     6.3398     9.6057 </r>
       <r>    -8.7179     9.3370    10.6005 </r>
       <r>    -8.6114    17.7989    12.4967 </r>
       <r>    -8.5048     5.6657    13.1004 </r>
       <r>    -8.3983    14.4082    14.6354 </r>
       <r>    -8.2917    16.9573    16.4420 </r>
       <r>    -8.1852     9.9193    17.4988 </r>
       <r>    -8.0787     4.9529    18.0264 </r>
       <r>    -7.9721    23.4623    20.5261 </r>
       <r>    -7.8656    12.5937    21.8678 </r>
       <r>    -7.7591    13.4968    23.3057 </r>
       <r>    -7.6525    13.7221    24.7676 </r>
       <r>    -7.5460    39.5911    28.9856 </r>
       <r>    -7.4394    48.8060    34.1853 </r>
       <r>    -7.3329    46.5184    39.1413 </r>
       <r>    -7.2264    39.8078    43.3823 </r>
       <r>    -7.1198    48.4954    48.5490 </r>
       <r>    -7.0133    65.2279    55.4982 </r>
       <r>    -6.9068    51.5091    60.9859 </r>
       <r>    -6.8002    47.8100    66.0795 </r>
       <r>    -6.6937    68.0258    73.3268 </r>
       <r>    -6.5871    83.3565    82.2075 </r>
       <r>    -6.4806   103.3401    93.2172 </r>
       <r>    -6.3741    92.9013   103.1147 </r>
       <r>    -6.2675    90.7715   112.7853 </r>
       <r>    -6.1610    93.8338   122.7822 </r>
       <r>    -6.0544    78.0536   131.0979 </r>
       <r>    -5.9479    62.6634   137.7740 </r>
       <r>    -5.8414    66.4810   144.8567 </r>
       <r>    -5.7348    35.0161   148.5873 </r>
       <r>    -5.6283    70.1995   156.0662 </r>
       <r>    -5.5218   100.5257   166.7761 </r>
       <r>    -5.4152    81.7082   175.4811 </r>
       <r>    -5.3087    70.3812   182.9794 </r>
       <r>    -5.2021    84.5551   191.9877 </r>
       <r>    -5.0956    97.8121   202.4085 </r>
       <r>    -4.9891    80.6343   210.9991 </r>
       <r>    -4.8825    77.3600   219.2409 </r>
       <r>    -4.7760    67.7371   226.4575 </r>
       <r>    -4.6694    85.6956   235.5874 </r>
       <r>    -4.5629    95.5077   245.7626 </r>
       <r>    -4.4564   123.8940   258.9620 </r>
       <r>    -4.3498   133.6646   273.2024 </r>
       <r>    -4.2433   100.5870   283.9188 </r>
       <r>    -4.1368   122.1241   296.9297 </r>
       <r>    -4.0302   151.1628   313.0343 </r>
       <r>    -3.9237   150.9563   329.1169 </r>
       <r>    -3.8171   139.9026   344.0219 </r>
       <r>    -3.7106   151.3991   360.1517 </r>
       <r>    -3.6041   145.8607   375.6914 </r>
       <r>    -3.4975   112.3779   387.6639 </r>
       <r>    -3.3910    77.2485   395.8939 </r>
       <r>    -3.2845    71.5728   403.5191 </r>
       <r>    -3.1779    74.3191   411.4369 </r>
       <r>    -3.0714    69.2112   418.8106 </r>
       <r>    -2.9648   113.6696   430.9207 </r>
       <r>    -2.8583   143.3981   446.1981 </r>
       <r>    -2.7518   103.9411   457.2718 </r>
       <r>    -2.6452    78.2411   465.6075 </r>
       <r>    -2.5387    75.5395   473.6553 </r>
       <r>    -2.4321    83.7781   482.5809 </r>
       <r>    -2.3256    89.2219   492.0864 </r>
       <r>    -2.2191    90.7535   501.7552 </r>
       <r>    -2.1125   104.1099   512.8468 </r>
       <r>    -2.0060   139.6598   527.7259 </r>
       <r>    -1.8995   132.6110   541.8541 </r>
       <r>    -1.7929   115.4980   554.1590 </r>
       <r>    -1.6864    83.2915   563.0328 </r>
       <r>    -1.5798    53.9757   568.7833 </r>
       <r>    -1.4733   107.7078   580.2582 </r>
       <r>    -1.3668   114.8506   592.4942 </r>
       <r>    -1.2602    96.9210   602.8200 </r>
       <r>    -1.1537    95.9545   613.0429 </r>
       <r>    -1.0472   126.8744   626.5598 </r>
       <r>    -0.9406   154.4464   643.0143 </r>
       <r>    -0.8341   150.4809   659.0462 </r>
       <r>    -0.7275   109.3891   670.7004 </r>
       <r>    -0.6210   100.6217   681.4204 </r>
       <r>    -0.5145    62.1595   688.0428 </r>
       <r>    -0.4079    16.7323   689.8254 </r>
       <r>    -0.3014    24.2203   692.4058 </r>
       <r>    -0.1948    21.0586   694.6493 </r>
       <r>    -0.0883    13.5246   696.0902 </r>
       <r>     0.0182    23.6685   698.6118 </r>
       <r>     0.1248    33.1447   702.1430 </r>
       <r>     0.2313    27.3506   705.0569 </r>
       <r>     0.3378    34.4860   708.7310 </r>
       <r>     0.4444    20.6275   710.9286 </r>
       <r>     0.5509    19.6841   713.0257 </r>
       <r>     0.6575     5.9698   713.6617 </r>
       <r>     0.7640     3.0143   713.9828 </r>
       <r>     0.8705    17.1495   715.8099 </r>
       <r>     0.9771    16.9537   717.6161 </r>
       <r>     1.0836    29.2529   720.7327 </r>
       <r>     1.1902    25.7945   723.4808 </r>
       <r>     1.2967    28.3382   726.4999 </r>
       <r>     1.4032    25.8126   729.2499 </r>
       <r>     1.5098    26.4082   732.0634 </r>
       <r>     1.6163    23.0524   734.5194 </r>
       <r>     1.7228    11.9048   735.7877 </r>
       <r>     1.8294    19.2921   737.8430 </r>
       <r>     1.9359    11.0701   739.0224 </r>
       <r>     2.0425    19.4266   741.0921 </r>
       <r>     2.1490    26.6368   743.9299 </r>
       <r>     2.2555    21.8419   746.2569 </r>
       <r>     2.3621    19.6884   748.3545 </r>
       <r>     2.4686    24.3283   750.9464 </r>
       <r>     2.5751    26.0077   753.7172 </r>
       <r>     2.6817    15.5185   755.3705 </r>
       <r>     2.7882    14.4431   756.9093 </r>
       <r>     2.8948    23.4693   759.4096 </r>
       <r>     3.0013    26.9572   762.2816 </r>
       <r>     3.1078    19.3848   764.3468 </r>
       <r>     3.2144    19.2529   766.3980 </r>
       <r>     3.3209    21.3878   768.6766 </r>
       <r>     3.4275    32.7792   772.1689 </r>
       <r>     3.5340    14.0372   773.6644 </r>
       <r>     3.6405    11.6615   774.9068 </r>
       <r>     3.7471    14.0487   776.4035 </r>
       <r>     3.8536     9.1923   777.3828 </r>
       <r>     3.9601     4.1468   777.8246 </r>
       <r>     4.0667    18.2996   779.7742 </r>
       <r>     4.1732    19.2775   781.8280 </r>
       <r>     4.2798    12.6011   783.1705 </r>
       <r>     4.3863     4.8468   783.6869 </r>
       <r>     4.4928     2.9932   784.0058 </r>
       <r>     4.5994    -0.0063   784.0051 </r>
       <r>     4.7059    -0.0471   784.0001 </r>
       <r>     4.8125    -0.0006   784.0000 </r>
       <r>     4.9190    -0.0000   784.0000 </r>
       <r>     5.0255    -0.0000   784.0000 </r>
       <r>     5.1321    -0.0000   784.0000 </r>
       <r>     5.2386     0.0000   784.0000 </r>
       <r>     5.3451     0.0000   784.0000 </r>
       <r>     5.4517     0.0000   784.0000 </r>
       <r>     5.5582     0.0000   784.0000 </r>
       <r>     5.6648     0.0000   784.0000 </r>
       <r>     5.7713     0.0000   784.0000 </r>
       <r>     5.8778     0.0000   784.0000 </r>
      </set>
     </set>
    </array>
   </total>
  </dos>
 </calculation>
 <structure name="finalpos" >
  <crystal>
   <varray name="basis" >
    <v>      11.21440000       0.00000000       0.00000000 </v>
    <v>       5.60720000       9.71195529       0.00000000 </v>
    <v>       0.00000000       0.00000000      31.44560000 </v>
   </varray>
   <i name="volume">   3424.85826052 </i>
   <varray name="rec_basis" >
    <v>       0.08917107      -0.05148294       0.00000000 </v>
    <v>       0.00000000       0.10296588       0.00000000 </v>
    <v>       0.00000000       0.00000000       0.03180095 </v>
   </varray>
  </crystal>
  <varray name="positions" >
   <v>       0.08333000       0.33333000       0.39081000 </v>
   <v>       0.08333000       0.08333000       0.39081000 </v>
   <v>       0.33333000       0.33333000       0.39081000 </v>
   <v>       0.33333000       0.08333000       0.39081000 </v>
   <v>       0.41667000       0.16667000       0.46360000 </v>
   <v>       0.41667000       0.41667000       0.46360000 </v>
   <v>       0.16667000       0.16667000       0.46360000 </v>
   <v>       0.16667000       0.41667000       0.46360000 </v>
   <v>       0.24809913       0.00123975       0.53588401 </v>
   <v>       0.25004181       0.25002679       0.53521188 </v>
   <v>       0.49936320       0.00104249       0.53520187 </v>
   <v>       0.50095166       0.25190842       0.53717812 </v>
   <v>       0.08340622       0.33684537       0.60880088 </v>
   <v>       0.08728632       0.08256990       0.61066901 </v>
   <v>       0.32749685       0.33427369       0.60843676 </v>
   <v>       0.33233121       0.08465367       0.60891829 </v>
   <v>       0.08333000       0.83333000       0.39081000 </v>
   <v>       0.08333000       0.58333000       0.39081000 </v>
   <v>       0.33333000       0.83333000       0.39081000 </v>
   <v>       0.33333000       0.58333000       0.39081000 </v>
   <v>       0.41667000       0.66667000       0.46360000 </v>
   <v>       0.41667000       0.91667000       0.46360000 </v>
   <v>       0.16667000       0.66667000       0.46360000 </v>
   <v>       0.16667000       0.91667000       0.46360000 </v>
   <v>       0.24959199       0.50047678       0.53574382 </v>
   <v>       0.24993049       0.75047878       0.53519258 </v>
   <v>       0.50078843       0.49863995       0.53714816 </v>
   <v>       0.49932389       0.75037897       0.53518644 </v>
   <v>       0.08327553       0.83248557       0.60873197 </v>
   <v>       0.08091943       0.58590158       0.60900779 </v>
   <v>       0.33230894       0.83546004       0.60887197 </v>
   <v>       0.32737323       0.59069561       0.60841112 </v>
   <v>       0.58333000       0.33333000       0.39081000 </v>
   <v>       0.58333000       0.08333000       0.39081000 </v>
   <v>       0.83333000       0.33333000       0.39081000 </v>
   <v>       0.83333000       0.08333000       0.39081000 </v>
   <v>       0.91667000       0.16667000       0.46360000 </v>
   <v>       0.91667000       0.41667000       0.46360000 </v>
   <v>       0.66667000       0.16667000       0.46360000 </v>
   <v>       0.66667000       0.41667000       0.46360000 </v>
   <v>       0.75026035       0.00114828       0.53579649 </v>
   <v>       0.74638223       0.25257689       0.53850558 </v>
   <v>       0.99833849       0.00230102       0.53613390 </v>
   <v>       0.99853375       0.25018554       0.53612628 </v>
   <v>       0.57912594       0.33692548       0.61481135 </v>
   <v>       0.58226271       0.08012008       0.60847499 </v>
   <v>       0.83417514       0.34012581       0.61043654 </v>
   <v>       0.83361300       0.07883428       0.61043890 </v>
   <v>       0.58333000       0.83333000       0.39081000 </v>
   <v>       0.58333000       0.58333000       0.39081000 </v>
   <v>       0.83333000       0.83333000       0.39081000 </v>
   <v>       0.83333000       0.58333000       0.39081000 </v>
   <v>       0.91667000       0.66667000       0.46360000 </v>
   <v>       0.91667000       0.91667000       0.46360000 </v>
   <v>       0.66667000       0.66667000       0.46360000 </v>
   <v>       0.66667000       0.91667000       0.46360000 </v>
   <v>       0.75028329       0.49969906       0.53578722 </v>
   <v>       0.74951818       0.75072324       0.53551617 </v>
   <v>      -0.00028987       0.50017690       0.53555716 </v>
   <v>      -0.00038796       0.75082073       0.53550487 </v>
   <v>       0.58184484       0.83533697       0.60873885 </v>
   <v>       0.58242997       0.59024887       0.60846856 </v>
   <v>       0.83226244       0.83402169       0.60893299 </v>
   <v>       0.83241302       0.58639849       0.60897062 </v>
   <v>       0.52799179       0.36606237       0.70886102 </v>
   <v>       0.54966653       0.35375379       0.67261230 </v>
   <v>       0.91865535       0.16721471       0.63711296 </v>
  </varray>
  <varray name="selective"  type="logical" >
   <v type="logical" >  F  F  F </v>
   <v type="logical" >  F  F  F </v>
   <v type="logical" >  F  F  F </v>
   <v type="logical" >  F  F  F </v>
   <v type="logical" >  F  F  F </v>
   <v type="logical" >  F  F  F </v>
   <v type="logical" >  F  F  F </v>
   <v type="logical" >  F  F  F </v>
   <v type="logical" >  T  T  T </v>
   <v type="logical" >  T  T  T </v>
   <v type="logical" >  T  T  T </v>
   <v type="logical" >  T  T  T </v>
   <v type="logical" >  T  T  T </v>
   <v type="logical" >  T  T  T </v>
   <v type="logical" >  T  T  T </v>
   <v type="logical" >  T  T  T </v>
   <v type="logical" >  F  F  F </v>
   <v type="logical" >  F  F  F </v>
   <v type="logical" >  F  F  F </v>
   <v type="logical" >  F  F  F </v>
   <v type="logical" >  F  F  F </v>
   <v type="logical" >  F  F  F </v>
   <v type="logical" >  F  F  F </v>
   <v type="logical" >  F  F  F </v>
   <v type="logical" >  T  T  T </v>
   <v type="logical" >  T  T  T </v>
   <v type="logical" >  T  T  T </v>
   <v type="logical" >  T  T  T </v>
   <v type="logical" >  T  T  T </v>
   <v type="logical" >  T  T  T </v>
   <v type="logical" >  T  T  T </v>
   <v type="logical" >  T  T  T </v>
   <v type="logical" >  F  F  F </v>
   <v type="logical" >  F  F  F </v>
   <v type="logical" >  F  F  F </v>
   <v type="logical" >  F  F  F </v>
   <v type="logical" >  F  F  F </v>
   <v type="logical" >  F  F  F </v>
   <v type="logical" >  F  F  F </v>
   <v type="logical" >  F  F  F </v>
   <v type="logical" >  T  T  T </v>
   <v type="logical" >  T  T  T </v>
   <v type="logical" >  T  T  T </v>
   <v type="logical" >  T  T  T </v>
   <v type="logical" >  T  T  T </v>
   <v type="logical" >  T  T  T </v>
   <v type="logical" >  T  T  T </v>
   <v type="logical" >  T  T  T </v>
   <v type="logical" >  F  F  F </v>
   <v type="logical" >  F  F  F </v>
   <v type="logical" >  F  F  F </v>
   <v type="logical" >  F  F  F </v>
   <v type="logical" >  F  F  F </v>
   <v type="logical" >  F  F  F </v>
   <v type="logical" >  F  F  F </v>
   <v type="logical" >  F  F  F </v>
   <v type="logical" >  T  T  T </v>
   <v type="logical" >  T  T  T </v>
   <v type="logical" >  T  T  T </v>
   <v type="logical" >  T  T  T </v>
   <v type="logical" >  T  T  T </v>
   <v type="logical" >  T  T  T </v>
   <v type="logical" >  T  T  T </v>
   <v type="logical" >  T  T  T </v>
   <v type="logical" >  T  T  T </v>
   <v type="logical" >  T  T  T </v>
   <v type="logical" >  T  T  T </v>
  </varray>
  <nose>
   <v>      -3.00000000       0.00000000       0.00010000       0.00010000 </v>
  </nose>
 </structure>
</modeling>
