Pt                                      
           1
    11.214400    0.000000    0.000000
     5.607200    9.711955    0.000000
     0.000000    0.000000   31.445600
   Pt   O    C    H 
  64   1   1   1
Direct configuration=     1
   0.08333000  0.33333000  0.39081000
   0.08333000  0.08333000  0.39081000
   0.33333000  0.33333000  0.39081000
   0.33333000  0.08333000  0.39081000
   0.41667000  0.16667000  0.46360000
   0.41667000  0.41667000  0.46360000
   0.16667000  0.16667000  0.46360000
   0.16667000  0.41667000  0.46360000
   0.24992021  0.00073788  0.53558213
   0.25071799  0.25078149  0.53541258
   0.49997823  0.00183639  0.53557957
   0.50146160  0.25292383  0.53739454
   0.08348913  0.33513523  0.60877191
   0.08284342  0.08597852  0.60876949
   0.33213481  0.33560058  0.60880712
   0.33343322  0.08579564  0.60873840
   0.08333000  0.83333000  0.39081000
   0.08333000  0.58333000  0.39081000
   0.33333000  0.83333000  0.39081000
   0.33333000  0.58333000  0.39081000
   0.41667000  0.66667000  0.46360000
   0.41667000  0.91667000  0.46360000
   0.16667000  0.66667000  0.46360000
   0.16667000  0.91667000  0.46360000
   0.24978862  0.50087083  0.53567888
   0.25032204  0.75029350  0.53536412
   0.50132975  0.49830243  0.53743516
   0.49993351  0.75009970  0.53548555
   0.08322605  0.83608822  0.60878273
   0.08271076  0.58579598  0.60876551
   0.33297619  0.83600911  0.60874760
   0.33120321  0.58751032  0.60869195
   0.58333000  0.33333000  0.39081000
   0.58333000  0.08333000  0.39081000
   0.83333000  0.33333000  0.39081000
   0.83333000  0.08333000  0.39081000
   0.91667000  0.16667000  0.46360000
   0.91667000  0.41667000  0.46360000
   0.66667000  0.16667000  0.46360000
   0.66667000  0.41667000  0.46360000
   0.74958145  0.00128574  0.53578231
   0.74666373  0.25288134  0.53733126
   0.99885064  0.00175608  0.53553852
   0.99943382  0.25055113  0.53535621
   0.58187897  0.33769881  0.61863714
   0.58328860  0.08525110  0.60907362
   0.83457696  0.33575062  0.60874891
   0.83382764  0.08516497  0.60894330
   0.58333000  0.83333000  0.39081000
   0.58333000  0.58333000  0.39081000
   0.83333000  0.83333000  0.39081000
   0.83333000  0.58333000  0.39081000
   0.91667000  0.66667000  0.46360000
   0.91667000  0.91667000  0.46360000
   0.66667000  0.66667000  0.46360000
   0.66667000  0.91667000  0.46360000
   0.74988387  0.50086992  0.53576907
   0.74958262  0.75104704  0.53575285
   0.99997922  0.50044658  0.53569906
   0.99968050  0.75119192  0.53575323
   0.58271828  0.83601753  0.60880555
   0.58308648  0.58744663  0.60901926
   0.83296839  0.83592610  0.60888365
   0.83335734  0.58590630  0.60885814
   0.47913154  0.38446010  0.70403567
   0.57805905  0.34967734  0.68162642
   0.88890501  0.18900117  0.64638501
Direct configuration=     2
   0.08333000  0.33333000  0.39081000
   0.08333000  0.08333000  0.39081000
   0.33333000  0.33333000  0.39081000
   0.33333000  0.08333000  0.39081000
   0.41667000  0.16667000  0.46360000
   0.41667000  0.41667000  0.46360000
   0.16667000  0.16667000  0.46360000
   0.16667000  0.41667000  0.46360000
   0.24951981  0.00093174  0.53567999
   0.25067418  0.25079217  0.53545096
   0.50000845  0.00173199  0.53554016
   0.50157642  0.25306999  0.53752751
   0.08393467  0.33549147  0.60871131
   0.08435414  0.08515307  0.60908399
   0.33178041  0.33561375  0.60880747
   0.33339578  0.08582270  0.60872873
   0.08333000  0.83333000  0.39081000
   0.08333000  0.58333000  0.39081000
   0.33333000  0.83333000  0.39081000
   0.33333000  0.58333000  0.39081000
   0.41667000  0.66667000  0.46360000
   0.41667000  0.91667000  0.46360000
   0.16667000  0.66667000  0.46360000
   0.16667000  0.91667000  0.46360000
   0.24977552  0.50086541  0.53568107
   0.25031249  0.75029167  0.53539667
   0.50137835  0.49810151  0.53748940
   0.49993672  0.75012672  0.53544488
   0.08355190  0.83538763  0.60873582
   0.08263016  0.58584022  0.60877111
   0.33291453  0.83599923  0.60873403
   0.33084729  0.58784481  0.60868318
   0.58333000  0.33333000  0.39081000
   0.58333000  0.08333000  0.39081000
   0.83333000  0.33333000  0.39081000
   0.83333000  0.08333000  0.39081000
   0.91667000  0.16667000  0.46360000
   0.91667000  0.41667000  0.46360000
   0.66667000  0.16667000  0.46360000
   0.66667000  0.41667000  0.46360000
   0.74991838  0.00152362  0.53594588
   0.74649928  0.25296038  0.53703821
   0.99903301  0.00156623  0.53538995
   0.99958117  0.25058532  0.53521489
   0.58344740  0.33748989  0.61883857
   0.58324039  0.08462246  0.60901431
   0.83494522  0.33575160  0.60975785
   0.83397652  0.08453453  0.60976003
   0.58333000  0.83333000  0.39081000
   0.58333000  0.58333000  0.39081000
   0.83333000  0.83333000  0.39081000
   0.83333000  0.58333000  0.39081000
   0.91667000  0.66667000  0.46360000
   0.91667000  0.91667000  0.46360000
   0.66667000  0.66667000  0.46360000
   0.66667000  0.91667000  0.46360000
   0.75021130  0.50022617  0.53596025
   0.74958560  0.75102962  0.53573474
   0.00001473  0.50040151  0.53570052
   0.99977028  0.75111594  0.53574668
   0.58269181  0.83601319  0.60880307
   0.58303450  0.58817167  0.60896413
   0.83297857  0.83593370  0.60883227
   0.83331030  0.58597870  0.60879749
   0.49420501  0.37957964  0.70274314
   0.55931464  0.35541138  0.68228572
   0.88865375  0.18929130  0.64485671
Direct configuration=     3
   0.08333000  0.33333000  0.39081000
   0.08333000  0.08333000  0.39081000
   0.33333000  0.33333000  0.39081000
   0.33333000  0.08333000  0.39081000
   0.41667000  0.16667000  0.46360000
   0.41667000  0.41667000  0.46360000
   0.16667000  0.16667000  0.46360000
   0.16667000  0.41667000  0.46360000
   0.24989294  0.00075109  0.53558880
   0.25071501  0.25078222  0.53541519
   0.49998029  0.00182928  0.53557689
   0.50146942  0.25293378  0.53740359
   0.08351948  0.33515949  0.60876778
   0.08294633  0.08592229  0.60879092
   0.33211067  0.33560148  0.60880714
   0.33343067  0.08579748  0.60873774
   0.08333000  0.83333000  0.39081000
   0.08333000  0.58333000  0.39081000
   0.33333000  0.83333000  0.39081000
   0.33333000  0.58333000  0.39081000
   0.41667000  0.66667000  0.46360000
   0.41667000  0.91667000  0.46360000
   0.16667000  0.66667000  0.46360000
   0.16667000  0.91667000  0.46360000
   0.24978773  0.50087046  0.53567903
   0.25032139  0.75029337  0.53536634
   0.50133306  0.49828874  0.53743885
   0.49993373  0.75010154  0.53548278
   0.08324824  0.83604050  0.60877953
   0.08270527  0.58579899  0.60876589
   0.33297199  0.83600844  0.60874667
   0.33117896  0.58753310  0.60869136
   0.58333000  0.33333000  0.39081000
   0.58333000  0.08333000  0.39081000
   0.83333000  0.33333000  0.39081000
   0.83333000  0.08333000  0.39081000
   0.91667000  0.16667000  0.46360000
   0.91667000  0.41667000  0.46360000
   0.66667000  0.16667000  0.46360000
   0.66667000  0.41667000  0.46360000
   0.74960440  0.00130194  0.53579345
   0.74665253  0.25288673  0.53731130
   0.99886306  0.00174315  0.53552840
   0.99944386  0.25055345  0.53534659
   0.58198581  0.33768458  0.61865086
   0.58328532  0.08520828  0.60906958
   0.83460204  0.33575069  0.60881763
   0.83383778  0.08512202  0.60899893
   0.58333000  0.83333000  0.39081000
   0.58333000  0.58333000  0.39081000
   0.83333000  0.83333000  0.39081000
   0.83333000  0.58333000  0.39081000
   0.91667000  0.66667000  0.46360000
   0.91667000  0.91667000  0.46360000
   0.66667000  0.66667000  0.46360000
   0.66667000  0.91667000  0.46360000
   0.74990617  0.50082607  0.53578209
   0.74958282  0.75104585  0.53575161
  -0.00001836  0.50044351  0.53569916
   0.99968662  0.75118674  0.53575278
   0.58271647  0.83601723  0.60880538
   0.58308294  0.58749602  0.60901551
   0.83296908  0.83592662  0.60888015
   0.83335414  0.58591124  0.60885401
   0.48015832  0.38412765  0.70394763
   0.57678221  0.35006793  0.68167134
   0.88888790  0.18902093  0.64628090
Direct configuration=     4
   0.08333000  0.33333000  0.39081000
   0.08333000  0.08333000  0.39081000
   0.33333000  0.33333000  0.39081000
   0.33333000  0.08333000  0.39081000
   0.41667000  0.16667000  0.46360000
   0.41667000  0.41667000  0.46360000
   0.16667000  0.16667000  0.46360000
   0.16667000  0.41667000  0.46360000
   0.24987635  0.00075912  0.53559285
   0.25071319  0.25078266  0.53541678
   0.49998154  0.00182495  0.53557525
   0.50147417  0.25293984  0.53740910
   0.08353793  0.33517425  0.60876527
   0.08300889  0.08588811  0.60880394
   0.33209599  0.33560202  0.60880716
   0.33342912  0.08579860  0.60873734
   0.08333000  0.83333000  0.39081000
   0.08333000  0.58333000  0.39081000
   0.33333000  0.83333000  0.39081000
   0.33333000  0.58333000  0.39081000
   0.41667000  0.66667000  0.46360000
   0.41667000  0.91667000  0.46360000
   0.16667000  0.66667000  0.46360000
   0.16667000  0.91667000  0.46360000
   0.24978719  0.50087024  0.53567912
   0.25032099  0.75029330  0.53536769
   0.50133507  0.49828042  0.53744110
   0.49993386  0.75010266  0.53548110
   0.08326174  0.83601148  0.60877759
   0.08270193  0.58580083  0.60876612
   0.33296943  0.83600803  0.60874611
   0.33116422  0.58754695  0.60869099
   0.58333000  0.33333000  0.39081000
   0.58333000  0.08333000  0.39081000
   0.83333000  0.33333000  0.39081000
   0.83333000  0.08333000  0.39081000
   0.91667000  0.16667000  0.46360000
   0.91667000  0.41667000  0.46360000
   0.66667000  0.16667000  0.46360000
   0.66667000  0.41667000  0.46360000
   0.74961835  0.00131179  0.53580023
   0.74664572  0.25289000  0.53729916
   0.99887061  0.00173528  0.53552225
   0.99944996  0.25055487  0.53534073
   0.58205077  0.33767593  0.61865920
   0.58328332  0.08518224  0.60906712
   0.83461729  0.33575073  0.60885942
   0.83384395  0.08509592  0.60903276
   0.58333000  0.83333000  0.39081000
   0.58333000  0.58333000  0.39081000
   0.83333000  0.83333000  0.39081000
   0.83333000  0.58333000  0.39081000
   0.91667000  0.66667000  0.46360000
   0.91667000  0.91667000  0.46360000
   0.66667000  0.66667000  0.46360000
   0.66667000  0.91667000  0.46360000
   0.74991973  0.50079941  0.53579001
   0.74958295  0.75104513  0.53575086
  -0.00001689  0.50044164  0.53569922
   0.99969034  0.75118360  0.53575251
   0.58271538  0.83601705  0.60880528
   0.58308079  0.58752605  0.60901322
   0.83296950  0.83592693  0.60887802
   0.83335219  0.58591423  0.60885149
   0.48078258  0.38392553  0.70389410
   0.57600591  0.35030541  0.68169864
   0.88887749  0.18903295  0.64621761
Direct configuration=     5
   0.08333000  0.33333000  0.39081000
   0.08333000  0.08333000  0.39081000
   0.33333000  0.33333000  0.39081000
   0.33333000  0.08333000  0.39081000
   0.41667000  0.16667000  0.46360000
   0.41667000  0.41667000  0.46360000
   0.16667000  0.16667000  0.46360000
   0.16667000  0.41667000  0.46360000
   0.24985128  0.00077126  0.53559898
   0.25071045  0.25078333  0.53541919
   0.49998344  0.00181842  0.53557279
   0.50148136  0.25294899  0.53741743
   0.08356584  0.33519656  0.60876148
   0.08310351  0.08583641  0.60882364
   0.33207380  0.33560285  0.60880718
   0.33342678  0.08580030  0.60873673
   0.08333000  0.83333000  0.39081000
   0.08333000  0.58333000  0.39081000
   0.33333000  0.83333000  0.39081000
   0.33333000  0.58333000  0.39081000
   0.41667000  0.66667000  0.46360000
   0.41667000  0.91667000  0.46360000
   0.16667000  0.66667000  0.46360000
   0.16667000  0.91667000  0.46360000
   0.24978637  0.50086990  0.53567925
   0.25032039  0.75029318  0.53536973
   0.50133811  0.49826784  0.53744450
   0.49993407  0.75010435  0.53547855
   0.08328215  0.83596761  0.60877465
   0.08269689  0.58580360  0.60876647
   0.33296557  0.83600741  0.60874526
   0.33114193  0.58756790  0.60869044
   0.58333000  0.33333000  0.39081000
   0.58333000  0.08333000  0.39081000
   0.83333000  0.33333000  0.39081000
   0.83333000  0.08333000  0.39081000
   0.91667000  0.16667000  0.46360000
   0.91667000  0.41667000  0.46360000
   0.66667000  0.16667000  0.46360000
   0.66667000  0.41667000  0.46360000
   0.74963946  0.00132669  0.53581047
   0.74663542  0.25289495  0.53728081
   0.99888204  0.00172339  0.53551294
   0.99945919  0.25055701  0.53533188
   0.58214899  0.33766284  0.61867182
   0.58328030  0.08514287  0.60906341
   0.83464036  0.33575079  0.60892261
   0.83385327  0.08505643  0.60908391
   0.58333000  0.83333000  0.39081000
   0.58333000  0.58333000  0.39081000
   0.83333000  0.83333000  0.39081000
   0.83333000  0.58333000  0.39081000
   0.91667000  0.66667000  0.46360000
   0.91667000  0.91667000  0.46360000
   0.66667000  0.66667000  0.46360000
   0.66667000  0.91667000  0.46360000
   0.74994024  0.50075909  0.53580198
   0.74958313  0.75104404  0.53574973
  -0.00001467  0.50043882  0.53569931
   0.99969596  0.75117884  0.53575210
   0.58271372  0.83601678  0.60880513
   0.58307753  0.58757146  0.60900977
   0.83297014  0.83592741  0.60887480
   0.83334924  0.58591877  0.60884770
   0.48172662  0.38361987  0.70381315
   0.57483197  0.35066452  0.68173993
   0.88886176  0.18905112  0.64612189
Direct configuration=     6
   0.08333000  0.33333000  0.39081000
   0.08333000  0.08333000  0.39081000
   0.33333000  0.33333000  0.39081000
   0.33333000  0.08333000  0.39081000
   0.41667000  0.16667000  0.46360000
   0.41667000  0.41667000  0.46360000
   0.16667000  0.16667000  0.46360000
   0.16667000  0.41667000  0.46360000
   0.24940564  0.00098205  0.53571032
   0.25066989  0.25078844  0.53545703
   0.50002320  0.00169954  0.53552342
   0.50161656  0.25310581  0.53759098
   0.08406819  0.33560858  0.60868718
   0.08486222  0.08487604  0.60917849
   0.33164655  0.33560981  0.60879918
   0.33338345  0.08583945  0.60872913
   0.08333000  0.83333000  0.39081000
   0.08333000  0.58333000  0.39081000
   0.33333000  0.83333000  0.39081000
   0.33333000  0.58333000  0.39081000
   0.41667000  0.66667000  0.46360000
   0.41667000  0.91667000  0.46360000
   0.16667000  0.66667000  0.46360000
   0.16667000  0.91667000  0.46360000
   0.24977700  0.50085860  0.53568307
   0.25031978  0.75029086  0.53539996
   0.50139817  0.49803586  0.53752450
   0.49994316  0.75012867  0.53542794
   0.08365257  0.83516218  0.60871450
   0.08260588  0.58585321  0.60877461
   0.33289040  0.83599204  0.60873291
   0.33071179  0.58796952  0.60867531
   0.58333000  0.33333000  0.39081000
   0.58333000  0.08333000  0.39081000
   0.83333000  0.33333000  0.39081000
   0.83333000  0.08333000  0.39081000
   0.91667000  0.16667000  0.46360000
   0.91667000  0.41667000  0.46360000
   0.66667000  0.16667000  0.46360000
   0.66667000  0.41667000  0.46360000
   0.75004441  0.00161250  0.53600329
   0.74649802  0.25296158  0.53698062
   0.99907108  0.00151913  0.53536598
   0.99958755  0.25060497  0.53519790
   0.58407838  0.33740149  0.61880870
   0.58322175  0.08439511  0.60899615
   0.83511352  0.33574691  0.61008801
   0.83407368  0.08427175  0.61002359
   0.58333000  0.83333000  0.39081000
   0.58333000  0.58333000  0.39081000
   0.83333000  0.83333000  0.39081000
   0.83333000  0.58333000  0.39081000
   0.91667000  0.66667000  0.46360000
   0.91667000  0.91667000  0.46360000
   0.66667000  0.66667000  0.46360000
   0.66667000  0.91667000  0.46360000
   0.75032456  0.49999052  0.53602982
   0.74958678  0.75102238  0.53572462
   0.00002328  0.50039150  0.53569830
   0.99979884  0.75108804  0.53574155
   0.58268668  0.83600895  0.60879988
   0.58302798  0.58843876  0.60894645
   0.83298941  0.83594260  0.60881531
   0.83330178  0.58599025  0.60877848
   0.48528333  0.38292047  0.70583921
   0.56677890  0.35243087  0.67903392
   0.88857159  0.18937662  0.64433860
Direct configuration=     7
   0.08333000  0.33333000  0.39081000
   0.08333000  0.08333000  0.39081000
   0.33333000  0.33333000  0.39081000
   0.33333000  0.08333000  0.39081000
   0.41667000  0.16667000  0.46360000
   0.41667000  0.41667000  0.46360000
   0.16667000  0.16667000  0.46360000
   0.16667000  0.41667000  0.46360000
   0.24806871  0.00161443  0.53604434
   0.25054820  0.25080379  0.53557057
   0.50014249  0.00134290  0.53537533
   0.50202215  0.25357625  0.53811162
   0.08557526  0.33684466  0.60846429
   0.09013835  0.08199493  0.61024307
   0.33036483  0.33563068  0.60877519
   0.33325348  0.08595690  0.60870634
   0.08333000  0.83333000  0.39081000
   0.08333000  0.58333000  0.39081000
   0.33333000  0.83333000  0.39081000
   0.33333000  0.58333000  0.39081000
   0.41667000  0.66667000  0.46360000
   0.41667000  0.91667000  0.46360000
   0.16667000  0.66667000  0.46360000
   0.16667000  0.91667000  0.46360000
   0.24974891  0.50082470  0.53569450
   0.25031793  0.75028391  0.53549065
   0.50157835  0.49733994  0.53776450
   0.49997043  0.75020161  0.53527612
   0.08476382  0.83274590  0.60853403
   0.08233285  0.58600204  0.60879901
   0.33266487  0.83594592  0.60869585
   0.32942137  0.58917437  0.60862991
   0.58333000  0.33333000  0.39081000
   0.58333000  0.08333000  0.39081000
   0.83333000  0.33333000  0.39081000
   0.83333000  0.08333000  0.39081000
   0.91667000  0.16667000  0.46360000
   0.91667000  0.41667000  0.46360000
   0.66667000  0.16667000  0.46360000
   0.66667000  0.41667000  0.46360000
   0.75125926  0.00246993  0.53658173
   0.74608581  0.25316146  0.53608005
   0.99963823  0.00090634  0.53492511
   0.99997264  0.25074884  0.53479597
   0.58986652  0.33661743  0.61921934
   0.58304612  0.08215184  0.60879436
   0.83653302  0.33573528  0.61358421
   0.83473490  0.08191770  0.61284264
   0.58333000  0.83333000  0.39081000
   0.58333000  0.58333000  0.39081000
   0.83333000  0.83333000  0.39081000
   0.83333000  0.58333000  0.39081000
   0.91667000  0.66667000  0.46360000
   0.91667000  0.91667000  0.46360000
   0.66667000  0.66667000  0.46360000
   0.66667000  0.91667000  0.46360000
   0.75147752  0.49768480  0.53671336
   0.74959771  0.75095739  0.53564931
   0.00013712  0.50024955  0.53569527
   0.00010748  0.75081563  0.53570992
   0.58260558  0.83598546  0.60878415
   0.58287930  0.59104067  0.60875647
   0.83304721  0.83598816  0.60863685
   0.83315940  0.58620469  0.60857083
   0.49595346  0.38082228  0.71191738
   0.54261968  0.35772992  0.67091589
   0.88770110  0.19035314  0.63898873
Direct configuration=     8
   0.08333000  0.33333000  0.39081000
   0.08333000  0.08333000  0.39081000
   0.33333000  0.33333000  0.39081000
   0.33333000  0.08333000  0.39081000
   0.41667000  0.16667000  0.46360000
   0.41667000  0.41667000  0.46360000
   0.16667000  0.16667000  0.46360000
   0.16667000  0.41667000  0.46360000
   0.24912736  0.00111368  0.53577985
   0.25064456  0.25079164  0.53548066
   0.50004803  0.00162530  0.53549260
   0.50170098  0.25320373  0.53769935
   0.08438189  0.33586587  0.60864078
   0.08596044  0.08427634  0.60940008
   0.33137976  0.33561415  0.60879419
   0.33335640  0.08586389  0.60872439
   0.08333000  0.83333000  0.39081000
   0.08333000  0.58333000  0.39081000
   0.33333000  0.83333000  0.39081000
   0.33333000  0.58333000  0.39081000
   0.41667000  0.66667000  0.46360000
   0.41667000  0.91667000  0.46360000
   0.16667000  0.66667000  0.46360000
   0.16667000  0.91667000  0.46360000
   0.24977116  0.50085154  0.53568545
   0.25031939  0.75028942  0.53541883
   0.50143568  0.49789101  0.53757445
   0.49994883  0.75014385  0.53539634
   0.08388387  0.83465924  0.60867693
   0.08254905  0.58588419  0.60877969
   0.33284345  0.83598244  0.60872519
   0.33044319  0.58822031  0.60866586
   0.58333000  0.33333000  0.39081000
   0.58333000  0.08333000  0.39081000
   0.83333000  0.33333000  0.39081000
   0.83333000  0.08333000  0.39081000
   0.91667000  0.16667000  0.46360000
   0.91667000  0.41667000  0.46360000
   0.66667000  0.16667000  0.46360000
   0.66667000  0.41667000  0.46360000
   0.75029728  0.00179097  0.53612369
   0.74641222  0.25300318  0.53679316
   0.99918914  0.00139158  0.53527422
   0.99966770  0.25063491  0.53511424
   0.58528317  0.33723829  0.61889417
   0.58318520  0.08392818  0.60895415
   0.83540899  0.33574449  0.61081574
   0.83421131  0.08378176  0.61061037
   0.58333000  0.83333000  0.39081000
   0.58333000  0.58333000  0.39081000
   0.83333000  0.83333000  0.39081000
   0.83333000  0.58333000  0.39081000
   0.91667000  0.66667000  0.46360000
   0.91667000  0.91667000  0.46360000
   0.66667000  0.66667000  0.46360000
   0.66667000  0.91667000  0.46360000
   0.75056454  0.49951059  0.53617210
   0.74958906  0.75100885  0.53570895
   0.00004697  0.50036196  0.53569767
  -0.00013692  0.75103134  0.53573497
   0.58266980  0.83600406  0.60879661
   0.58299703  0.58898034  0.60890690
   0.83300144  0.83595208  0.60877817
   0.83327215  0.58603488  0.60873526
   0.48750430  0.38248374  0.70710437
   0.56175020  0.35353386  0.67734417
   0.88839040  0.18957988  0.64322504
Direct configuration=     9
   0.08333000  0.33333000  0.39081000
   0.08333000  0.08333000  0.39081000
   0.33333000  0.33333000  0.39081000
   0.33333000  0.08333000  0.39081000
   0.41667000  0.16667000  0.46360000
   0.41667000  0.41667000  0.46360000
   0.16667000  0.16667000  0.46360000
   0.16667000  0.41667000  0.46360000
   0.24893799  0.00120325  0.53582716
   0.25062733  0.25079381  0.53549675
   0.50006493  0.00157479  0.53547162
   0.50175843  0.25327037  0.53777309
   0.08459536  0.33604095  0.60860921
   0.08670777  0.08386825  0.60955087
   0.33119822  0.33561711  0.60879079
   0.33333799  0.08588053  0.60872116
   0.08333000  0.83333000  0.39081000
   0.08333000  0.58333000  0.39081000
   0.33333000  0.83333000  0.39081000
   0.33333000  0.58333000  0.39081000
   0.41667000  0.66667000  0.46360000
   0.41667000  0.91667000  0.46360000
   0.16667000  0.66667000  0.46360000
   0.16667000  0.91667000  0.46360000
   0.24976718  0.50084674  0.53568707
   0.25031913  0.75028843  0.53543168
   0.50146120  0.49779243  0.53760845
   0.49995270  0.75015418  0.53537484
   0.08404127  0.83431699  0.60865137
   0.08251037  0.58590527  0.60878314
   0.33281151  0.83597591  0.60871994
   0.33026041  0.58839097  0.60865943
   0.58333000  0.33333000  0.39081000
   0.58333000  0.08333000  0.39081000
   0.83333000  0.33333000  0.39081000
   0.83333000  0.08333000  0.39081000
   0.91667000  0.16667000  0.46360000
   0.91667000  0.41667000  0.46360000
   0.66667000  0.16667000  0.46360000
   0.66667000  0.41667000  0.46360000
   0.75046935  0.00191242  0.53620562
   0.74635383  0.25303149  0.53666560
   0.99926947  0.00130478  0.53521177
   0.99972225  0.25065529  0.53505731
   0.58610302  0.33712723  0.61895234
   0.58316032  0.08361043  0.60892556
   0.83561005  0.33574285  0.61131095
   0.83430497  0.08344832  0.61100967
   0.58333000  0.83333000  0.39081000
   0.58333000  0.58333000  0.39081000
   0.83333000  0.83333000  0.39081000
   0.83333000  0.58333000  0.39081000
   0.91667000  0.66667000  0.46360000
   0.91667000  0.91667000  0.46360000
   0.66667000  0.66667000  0.46360000
   0.66667000  0.91667000  0.46360000
   0.75072785  0.49918400  0.53626892
   0.74959060  0.75099965  0.53569828
   0.00006310  0.50034185  0.53569724
  -0.00009320  0.75099275  0.53573049
   0.58265831  0.83600073  0.60879438
   0.58297597  0.58934889  0.60887999
   0.83300963  0.83595854  0.60875289
   0.83325198  0.58606526  0.60870584
   0.48901566  0.38218654  0.70796530
   0.55832820  0.35428444  0.67619430
   0.88826710  0.18971820  0.64246726
Direct configuration=    10
   0.08333000  0.33333000  0.39081000
   0.08333000  0.08333000  0.39081000
   0.33333000  0.33333000  0.39081000
   0.33333000  0.08333000  0.39081000
   0.41667000  0.16667000  0.46360000
   0.41667000  0.41667000  0.46360000
   0.16667000  0.16667000  0.46360000
   0.16667000  0.41667000  0.46360000
   0.24883137  0.00125632  0.53585294
   0.25063182  0.25078940  0.53550192
   0.50007669  0.00155163  0.53545660
   0.50179032  0.25330065  0.53782117
   0.08471342  0.33614746  0.60858980
   0.08716800  0.08361744  0.60963711
   0.33108452  0.33561567  0.60878676
   0.33333225  0.08589052  0.60872233
   0.08333000  0.83333000  0.39081000
   0.08333000  0.58333000  0.39081000
   0.33333000  0.83333000  0.39081000
   0.33333000  0.58333000  0.39081000
   0.41667000  0.66667000  0.46360000
   0.41667000  0.91667000  0.46360000
   0.16667000  0.66667000  0.46360000
   0.16667000  0.91667000  0.46360000
   0.24977116  0.50083908  0.53568809
   0.25033030  0.75027977  0.53543572
   0.50148009  0.49773873  0.53763599
   0.49995887  0.75015146  0.53535940
   0.08412806  0.83411632  0.60863548
   0.08248784  0.58591671  0.60878654
   0.33279541  0.83596838  0.60871936
   0.33014540  0.58850108  0.60865398
   0.58333000  0.33333000  0.39081000
   0.58333000  0.08333000  0.39081000
   0.83333000  0.33333000  0.39081000
   0.83333000  0.08333000  0.39081000
   0.91667000  0.16667000  0.46360000
   0.91667000  0.41667000  0.46360000
   0.66667000  0.16667000  0.46360000
   0.66667000  0.41667000  0.46360000
   0.75057622  0.00199284  0.53625567
   0.74635223  0.25303155  0.53661773
   0.99929828  0.00127235  0.53519120
   0.99972931  0.25066484  0.53504376
   0.58660528  0.33704586  0.61891475
   0.58314260  0.08339827  0.60890709
   0.83576031  0.33580051  0.61159531
   0.83439836  0.08319418  0.61124356
   0.58333000  0.83333000  0.39081000
   0.58333000  0.58333000  0.39081000
   0.83333000  0.83333000  0.39081000
   0.83333000  0.58333000  0.39081000
   0.91667000  0.66667000  0.46360000
   0.91667000  0.91667000  0.46360000
   0.66667000  0.66667000  0.46360000
   0.66667000  0.91667000  0.46360000
   0.75083133  0.49897725  0.53632984
   0.74959254  0.75099205  0.53568935
   0.00006606  0.50033654  0.53569472
  -0.00007175  0.75096787  0.53572539
   0.58265337  0.83599758  0.60879145
   0.58296268  0.58960195  0.60886168
   0.83301692  0.83596839  0.60873934
   0.83324370  0.58607379  0.60868953
   0.49057170  0.38176273  0.70828842
   0.55550313  0.35501752  0.67574525
   0.88822334  0.18975395  0.64200704
Direct configuration=    11
   0.08333000  0.33333000  0.39081000
   0.08333000  0.08333000  0.39081000
   0.33333000  0.33333000  0.39081000
   0.33333000  0.08333000  0.39081000
   0.41667000  0.16667000  0.46360000
   0.41667000  0.41667000  0.46360000
   0.16667000  0.16667000  0.46360000
   0.16667000  0.41667000  0.46360000
   0.24855046  0.00139612  0.53592088
   0.25064367  0.25077778  0.53551556
   0.50010769  0.00149062  0.53541704
   0.50187433  0.25338043  0.53794784
   0.08502447  0.33642805  0.60853864
   0.08838054  0.08295664  0.60986431
   0.33078499  0.33561187  0.60877616
   0.33331714  0.08591685  0.60872542
   0.08333000  0.83333000  0.39081000
   0.08333000  0.58333000  0.39081000
   0.33333000  0.83333000  0.39081000
   0.33333000  0.58333000  0.39081000
   0.41667000  0.66667000  0.46360000
   0.41667000  0.91667000  0.46360000
   0.16667000  0.66667000  0.46360000
   0.16667000  0.91667000  0.46360000
   0.24978167  0.50081888  0.53569079
   0.25035972  0.75025696  0.53544637
   0.50152986  0.49759725  0.53770853
   0.49997515  0.75014430  0.53531871
   0.08435669  0.83358765  0.60859362
   0.08242848  0.58594684  0.60879551
   0.33275299  0.83594856  0.60871783
   0.32984238  0.58879119  0.60863961
   0.58333000  0.33333000  0.39081000
   0.58333000  0.08333000  0.39081000
   0.83333000  0.33333000  0.39081000
   0.83333000  0.08333000  0.39081000
   0.91667000  0.16667000  0.46360000
   0.91667000  0.41667000  0.46360000
   0.66667000  0.16667000  0.46360000
   0.66667000  0.41667000  0.46360000
   0.75085777  0.00220472  0.53638752
   0.74634800  0.25303170  0.53649161
   0.99937419  0.00118692  0.53513701
   0.99974790  0.25068998  0.53500806
   0.58792853  0.33683148  0.61881573
   0.58309593  0.08283929  0.60885841
   0.83615617  0.33595244  0.61234448
   0.83464442  0.08252461  0.61185977
   0.58333000  0.83333000  0.39081000
   0.58333000  0.58333000  0.39081000
   0.83333000  0.83333000  0.39081000
   0.83333000  0.58333000  0.39081000
   0.91667000  0.66667000  0.46360000
   0.91667000  0.91667000  0.46360000
   0.66667000  0.66667000  0.46360000
   0.66667000  0.91667000  0.46360000
   0.75110397  0.49843255  0.53649034
   0.74959763  0.75097205  0.53566584
   0.00007387  0.50032255  0.53568809
  -0.00001524  0.75090232  0.53571196
   0.58264037  0.83598927  0.60878374
   0.58292766  0.59026868  0.60881343
   0.83303614  0.83599436  0.60870364
   0.83322189  0.58609628  0.60864657
   0.49467125  0.38064614  0.70913970
   0.54806020  0.35694889  0.67456220
   0.88810806  0.18984813  0.64079453
Direct configuration=    12
   0.08333000  0.33333000  0.39081000
   0.08333000  0.08333000  0.39081000
   0.33333000  0.33333000  0.39081000
   0.33333000  0.08333000  0.39081000
   0.41667000  0.16667000  0.46360000
   0.41667000  0.41667000  0.46360000
   0.16667000  0.16667000  0.46360000
   0.16667000  0.41667000  0.46360000
   0.24856016  0.00139698  0.53591560
   0.25067386  0.25076522  0.53550611
   0.50011189  0.00150216  0.53541137
   0.50186640  0.25335552  0.53795080
   0.08501277  0.33643660  0.60853732
   0.08842039  0.08293652  0.60986169
   0.33077646  0.33560369  0.60877357
   0.33332863  0.08591651  0.60873117
   0.08333000  0.83333000  0.39081000
   0.08333000  0.58333000  0.39081000
   0.33333000  0.83333000  0.39081000
   0.33333000  0.58333000  0.39081000
   0.41667000  0.66667000  0.46360000
   0.41667000  0.91667000  0.46360000
   0.16667000  0.66667000  0.46360000
   0.16667000  0.91667000  0.46360000
   0.24979489  0.50080852  0.53569081
   0.25038267  0.75024130  0.53543861
   0.50153610  0.49761195  0.53771956
   0.49998223  0.75012753  0.53531185
   0.08434402  0.83358653  0.60859226
   0.08242487  0.58594704  0.60879805
   0.33276041  0.83593917  0.60872285
   0.32983148  0.58881054  0.60863773
   0.58333000  0.33333000  0.39081000
   0.58333000  0.08333000  0.39081000
   0.83333000  0.33333000  0.39081000
   0.83333000  0.08333000  0.39081000
   0.91667000  0.16667000  0.46360000
   0.91667000  0.41667000  0.46360000