LAMMPS (29 Sep 2021 - Update 2)
OMP_NUM_THREADS environment is not set. Defaulting to 1 thread. (src/comm.cpp:98)
  using 1 OpenMP thread(s) per MPI task
Reading data file ...
  orthogonal box = (0.0000000 0.0000000 0.0000000) to (24.500000 24.500000 24.500000)
  1 by 2 by 2 MPI processor grid
  reading atoms ...
  1029 atoms
  reading velocities ...
  1029 velocities
  scanning bonds ...
  2 = max bonds/atom
  scanning angles ...
  1 = max angles/atom
  reading bonds ...
  686 bonds
  reading angles ...
  343 angles
Finding 1-2 1-3 1-4 neighbors ...
  special bond factors lj:    0        0        0       
  special bond factors coul:  0        0        0       
     2 = max # of 1-2 neighbors
     1 = max # of 1-3 neighbors
     1 = max # of 1-4 neighbors
     2 = max # of special neighbors
  special bonds CPU = 0.001 seconds
  read_data CPU = 0.018 seconds
1029 atoms in group spce
Finding SHAKE clusters ...
       0 = # of size 2 clusters
       0 = # of size 3 clusters
       0 = # of size 4 clusters
     343 = # of frozen angles
  find clusters CPU = 0.000 seconds
PPPM initialization ...
  using 12-bit tables for long-range coulomb (src/kspace.cpp:340)
  G vector (1/distance) = 0.27786791
  grid = 15 15 15
  stencil order = 5
  estimated absolute RMS force accuracy = 0.012513084
  estimated relative force accuracy = 3.7682782e-05
  using double precision FFTW3
  3d grid and FFT values/proc = 4312 960
Neighbor list info ...
  update every 1 steps, delay 10 steps, check yes
  max neighbors/atom: 2000, page size: 100000
  master list distance cutoff = 12
  ghost atom cutoff = 12
  binsize = 6, bins = 5 5 5
  1 neighbor lists, perpetual/occasional/extra = 1 0 0
  (1) pair lj/charmm/coul/long, perpetual
      attributes: half, newton on
      pair build: half/bin/newton
      stencil: half/bin/3d
      bin: standard
Setting up Verlet run ...
  Unit style    : real
  Current step  : 0
  Time step     : 1
SHAKE stats (type/ave/delta/count) on step 0
     1   1.01838   0.0327515       1029
     1   106.461   5.43422          343
Per MPI rank memory allocation (min/avg/max) = 9.652 | 9.667 | 9.682 Mbytes
---------------- Step        0 ----- CPU =      0.0000 (sec) ----------------
TotEng   =     -4622.6053 Temp     =         0.0000 KinEng   =         0.0000 
PotEng   =     -4622.6053 E_bond   =         0.0000 E_angle  =         0.0000 
E_vdwl   =      1019.6509 E_coul   =     13578.5425 E_long   =    -19220.7987 
Press    =     -2427.9579 Density  =         0.6977 Lx       =        24.5000 
SHAKE stats (type/ave/delta/count) on step 100
     1   1.00000   8.65857e-07     1029
     1   109.470   8.13351e-05      343
---------------- Step      100 ----- CPU =      0.2063 (sec) ----------------
TotEng   =     -4149.6429 Temp     =        10.2488 KinEng   =        20.9265 
PotEng   =     -4170.5693 E_bond   =         0.0000 E_angle  =         0.0000 
E_vdwl   =       862.8238 E_coul   =     14189.3982 E_long   =    -19222.7913 
Press    =     -2918.7057 Density  =         0.6977 Lx       =        24.5000 
SHAKE stats (type/ave/delta/count) on step 200
     1   1.00000   9.94782e-07     1029
     1   109.470   8.24307e-05      343
---------------- Step      200 ----- CPU =      0.4068 (sec) ----------------
TotEng   =     -4149.3496 Temp     =        13.3490 KinEng   =        27.2568 
PotEng   =     -4176.6064 E_bond   =         0.0000 E_angle  =         0.0000 
E_vdwl   =       857.8961 E_coul   =     14188.0985 E_long   =    -19222.6010 
Press    =     -3066.6828 Density  =         0.6977 Lx       =        24.5000 
SHAKE stats (type/ave/delta/count) on step 300
     1   1.00000   9.54408e-07     1029
     1   109.470   8.82942e-05      343
---------------- Step      300 ----- CPU =      0.6125 (sec) ----------------
TotEng   =     -4156.2989 Temp     =        15.3788 KinEng   =        31.4013 
PotEng   =     -4187.7002 E_bond   =         0.0000 E_angle  =         0.0000 
E_vdwl   =       881.6754 E_coul   =     14153.0565 E_long   =    -19222.4322 
Press    =     -2752.4706 Density  =         0.6977 Lx       =        24.5000 
SHAKE stats (type/ave/delta/count) on step 400
     1   1.00000   1.21715e-06     1029
     1   109.470   8.61913e-05      343
---------------- Step      400 ----- CPU =      0.8155 (sec) ----------------
TotEng   =     -4165.2334 Temp     =        16.1238 KinEng   =        32.9224 
PotEng   =     -4198.1558 E_bond   =         0.0000 E_angle  =         0.0000 
E_vdwl   =       891.3795 E_coul   =     14132.6560 E_long   =    -19222.1913 
Press    =     -2636.1021 Density  =         0.6977 Lx       =        24.5000 
SHAKE stats (type/ave/delta/count) on step 500
     1   1.00000   9.95046e-07     1029
     1   109.470   7.91993e-05      343
---------------- Step      500 ----- CPU =      0.9869 (sec) ----------------
TotEng   =     -4175.8946 Temp     =        16.7128 KinEng   =        34.1252 
PotEng   =     -4210.0199 E_bond   =         0.0000 E_angle  =         0.0000 
E_vdwl   =       907.3958 E_coul   =     14105.2438 E_long   =    -19222.6594 
Press    =     -2401.7725 Density  =         0.6977 Lx       =        24.5000 
SHAKE stats (type/ave/delta/count) on step 600
     1   1.00000   1.20279e-06     1029
     1   109.470   7.64334e-05      343
---------------- Step      600 ----- CPU =      1.1772 (sec) ----------------
TotEng   =     -4184.4938 Temp     =        15.5206 KinEng   =        31.6908 
PotEng   =     -4216.1846 E_bond   =         0.0000 E_angle  =         0.0000 
E_vdwl   =       906.5367 E_coul   =     14100.1636 E_long   =    -19222.8849 
Press    =     -2450.8576 Density  =         0.6977 Lx       =        24.5000 
SHAKE stats (type/ave/delta/count) on step 700
     1   1.00000   1.06458e-06     1029
     1   109.470   7.89987e-05      343
---------------- Step      700 ----- CPU =      1.3574 (sec) ----------------
TotEng   =     -4193.0129 Temp     =        18.1703 KinEng   =        37.1011 
PotEng   =     -4230.1140 E_bond   =         0.0000 E_angle  =         0.0000 
E_vdwl   =       908.9911 E_coul   =     14084.8530 E_long   =    -19223.9581 
Press    =     -2491.0577 Density  =         0.6977 Lx       =        24.5000 
SHAKE stats (type/ave/delta/count) on step 800
     1   1.00000   1.08967e-06     1029
     1   109.470   8.20170e-05      343
---------------- Step      800 ----- CPU =      1.5350 (sec) ----------------
TotEng   =     -4205.7107 Temp     =        19.7847 KinEng   =        40.3976 
PotEng   =     -4246.1083 E_bond   =         0.0000 E_angle  =         0.0000 
E_vdwl   =       923.6744 E_coul   =     14054.9145 E_long   =    -19224.6972 
Press    =     -2371.7968 Density  =         0.6977 Lx       =        24.5000 
SHAKE stats (type/ave/delta/count) on step 900
     1   1.00000   1.14142e-06     1029
     1   109.470   8.18156e-05      343
---------------- Step      900 ----- CPU =      1.7183 (sec) ----------------
TotEng   =     -4218.7708 Temp     =        18.5125 KinEng   =        37.7999 
PotEng   =     -4256.5707 E_bond   =         0.0000 E_angle  =         0.0000 
E_vdwl   =       919.1459 E_coul   =     14049.8225 E_long   =    -19225.5392 
Press    =     -2509.8716 Density  =         0.6977 Lx       =        24.5000 
SHAKE stats (type/ave/delta/count) on step 1000
     1   1.00000   1.04569e-06     1029
     1   109.470   8.16128e-05      343
---------------- Step     1000 ----- CPU =      1.9141 (sec) ----------------
TotEng   =     -4227.7727 Temp     =        16.2108 KinEng   =        33.1002 
PotEng   =     -4260.8729 E_bond   =         0.0000 E_angle  =         0.0000 
E_vdwl   =       889.9809 E_coul   =     14075.6785 E_long   =    -19226.5324 
Press    =     -2955.8676 Density  =         0.6977 Lx       =        24.5000 
SHAKE stats (type/ave/delta/count) on step 1100
     1   1.00000   9.98833e-07     1029
     1   109.470   8.04211e-05      343
---------------- Step     1100 ----- CPU =      2.0903 (sec) ----------------
TotEng   =     -4234.8527 Temp     =        18.8354 KinEng   =        38.4591 
PotEng   =     -4273.3118 E_bond   =         0.0000 E_angle  =         0.0000 
E_vdwl   =       894.9958 E_coul   =     14058.5592 E_long   =    -19226.8668 
Press    =     -2949.4667 Density  =         0.6977 Lx       =        24.5000 
SHAKE stats (type/ave/delta/count) on step 1200
     1   1.00000   1.01590e-06     1029
     1   109.470   8.55967e-05      343
---------------- Step     1200 ----- CPU =      2.2801 (sec) ----------------
TotEng   =     -4243.8563 Temp     =        16.7881 KinEng   =        34.2789 
PotEng   =     -4278.1352 E_bond   =         0.0000 E_angle  =         0.0000 
E_vdwl   =       916.7188 E_coul   =     14031.2189 E_long   =    -19226.0729 
Press    =     -2683.9317 Density  =         0.6977 Lx       =        24.5000 
SHAKE stats (type/ave/delta/count) on step 1300
     1   1.00000   9.56677e-07     1029
     1   109.470   8.38194e-05      343
---------------- Step     1300 ----- CPU =      2.4540 (sec) ----------------
TotEng   =     -4247.3273 Temp     =        16.0288 KinEng   =        32.7284 
PotEng   =     -4280.0557 E_bond   =         0.0000 E_angle  =         0.0000 
E_vdwl   =       917.9145 E_coul   =     14027.4048 E_long   =    -19225.3750 
Press    =     -2684.0260 Density  =         0.6977 Lx       =        24.5000 
SHAKE stats (type/ave/delta/count) on step 1400
     1   1.00000   9.81815e-07     1029
     1   109.470   7.83624e-05      343
---------------- Step     1400 ----- CPU =      2.6362 (sec) ----------------
TotEng   =     -4245.5175 Temp     =        16.4464 KinEng   =        33.5811 
PotEng   =     -4279.0986 E_bond   =         0.0000 E_angle  =         0.0000 
E_vdwl   =       906.5441 E_coul   =     14039.8227 E_long   =    -19225.4654 
Press    =     -2820.3710 Density  =         0.6977 Lx       =        24.5000 
SHAKE stats (type/ave/delta/count) on step 1500
     1   1.00000   9.97525e-07     1029
     1   109.470   8.34288e-05      343
---------------- Step     1500 ----- CPU =      2.8186 (sec) ----------------
TotEng   =     -4240.2602 Temp     =        18.8995 KinEng   =        38.5900 
PotEng   =     -4278.8503 E_bond   =         0.0000 E_angle  =         0.0000 
E_vdwl   =       914.3286 E_coul   =     14032.3043 E_long   =    -19225.4832 
Press    =     -2711.3539 Density  =         0.6977 Lx       =        24.5000 
SHAKE stats (type/ave/delta/count) on step 1600
     1   1.00000   8.68043e-07     1029
     1   109.470   7.85050e-05      343
---------------- Step     1600 ----- CPU =      3.0049 (sec) ----------------
TotEng   =     -4237.0668 Temp     =        20.9398 KinEng   =        42.7561 
PotEng   =     -4279.8228 E_bond   =         0.0000 E_angle  =         0.0000 
E_vdwl   =       896.1798 E_coul   =     14049.6444 E_long   =    -19225.6470 
Press    =     -2979.4327 Density  =         0.6977 Lx       =        24.5000 
SHAKE stats (type/ave/delta/count) on step 1700
     1   1.00000   9.13750e-07     1029
     1   109.470   7.80138e-05      343
---------------- Step     1700 ----- CPU =      3.2166 (sec) ----------------
TotEng   =     -4237.9971 Temp     =        19.7528 KinEng   =        40.3324 
PotEng   =     -4278.3295 E_bond   =         0.0000 E_angle  =         0.0000 
E_vdwl   =       910.4358 E_coul   =     14037.6023 E_long   =    -19226.3676 
Press    =     -2779.6704 Density  =         0.6977 Lx       =        24.5000 
SHAKE stats (type/ave/delta/count) on step 1800
     1   1.00000   1.10465e-06     1029
     1   109.470   7.85826e-05      343
---------------- Step     1800 ----- CPU =      3.4247 (sec) ----------------
TotEng   =     -4238.4933 Temp     =        21.3429 KinEng   =        43.5790 
PotEng   =     -4282.0724 E_bond   =         0.0000 E_angle  =         0.0000 
E_vdwl   =       903.6668 E_coul   =     14040.2579 E_long   =    -19225.9971 
Press    =     -2914.8822 Density  =         0.6977 Lx       =        24.5000 
SHAKE stats (type/ave/delta/count) on step 1900
     1   1.00000   8.67294e-07     1029
     1   109.470   8.37524e-05      343
---------------- Step     1900 ----- CPU =      3.6022 (sec) ----------------
TotEng   =     -4238.3532 Temp     =        20.3648 KinEng   =        41.5820 
PotEng   =     -4279.9353 E_bond   =         0.0000 E_angle  =         0.0000 
E_vdwl   =       881.6777 E_coul   =     14063.8409 E_long   =    -19225.4538 
Press    =     -3242.3343 Density  =         0.6977 Lx       =        24.5000 
SHAKE stats (type/ave/delta/count) on step 2000
     1   1.00000   1.02708e-06     1029
     1   109.470   8.24492e-05      343
---------------- Step     2000 ----- CPU =      3.7798 (sec) ----------------
TotEng   =     -4236.4099 Temp     =        22.0973 KinEng   =        45.1195 
PotEng   =     -4281.5293 E_bond   =         0.0000 E_angle  =         0.0000 
E_vdwl   =       882.4861 E_coul   =     14061.3962 E_long   =    -19225.4116 
Press    =     -3227.7809 Density  =         0.6977 Lx       =        24.5000 
SHAKE stats (type/ave/delta/count) on step 2100
     1   1.00000   1.00650e-06     1029
     1   109.470   7.76298e-05      343
---------------- Step     2100 ----- CPU =      3.9763 (sec) ----------------
TotEng   =     -4234.2874 Temp     =        21.6780 KinEng   =        44.2632 
PotEng   =     -4278.5506 E_bond   =         0.0000 E_angle  =         0.0000 
E_vdwl   =       894.3972 E_coul   =     14052.2450 E_long   =    -19225.1929 
Press    =     -2992.4446 Density  =         0.6977 Lx       =        24.5000 
SHAKE stats (type/ave/delta/count) on step 2200
     1   1.00000   8.22573e-07     1029
     1   109.470   8.74914e-05      343
---------------- Step     2200 ----- CPU =      4.2017 (sec) ----------------
TotEng   =     -4230.7191 Temp     =        24.1073 KinEng   =        49.2237 
PotEng   =     -4279.9428 E_bond   =         0.0000 E_angle  =         0.0000 
E_vdwl   =       881.8003 E_coul   =     14063.9893 E_long   =    -19225.7324 
Press    =     -3178.5239 Density  =         0.6977 Lx       =        24.5000 
SHAKE stats (type/ave/delta/count) on step 2300
     1   1.00000   9.15746e-07     1029
     1   109.470   7.80040e-05      343
---------------- Step     2300 ----- CPU =      4.4273 (sec) ----------------
TotEng   =     -4229.9929 Temp     =        24.1728 KinEng   =        49.3574 
PotEng   =     -4279.3503 E_bond   =         0.0000 E_angle  =         0.0000 
E_vdwl   =       902.1340 E_coul   =     14044.4311 E_long   =    -19225.9154 
Press    =     -2885.9301 Density  =         0.6977 Lx       =        24.5000 
SHAKE stats (type/ave/delta/count) on step 2400
     1   1.00000   9.05305e-07     1029
     1   109.470   7.90557e-05      343
---------------- Step     2400 ----- CPU =      4.6285 (sec) ----------------
TotEng   =     -4233.3610 Temp     =        23.9109 KinEng   =        48.8225 
PotEng   =     -4282.1835 E_bond   =         0.0000 E_angle  =         0.0000 
E_vdwl   =       894.9161 E_coul   =     14048.7452 E_long   =    -19225.8448 
Press    =     -2963.0509 Density  =         0.6977 Lx       =        24.5000 
SHAKE stats (type/ave/delta/count) on step 2500
     1   1.00000   8.69008e-07     1029
     1   109.470   8.04938e-05      343
---------------- Step     2500 ----- CPU =      4.8079 (sec) ----------------
TotEng   =     -4237.1122 Temp     =        22.9792 KinEng   =        46.9203 
PotEng   =     -4284.0324 E_bond   =         0.0000 E_angle  =         0.0000 
E_vdwl   =       931.1419 E_coul   =     14010.2447 E_long   =    -19225.4190 
Press    =     -2417.2438 Density  =         0.6977 Lx       =        24.5000 
SHAKE stats (type/ave/delta/count) on step 2600
     1   1.00000   8.53874e-07     1029
     1   109.470   8.11999e-05      343
---------------- Step     2600 ----- CPU =      4.9895 (sec) ----------------
TotEng   =     -4235.8888 Temp     =        24.1498 KinEng   =        49.3103 
PotEng   =     -4285.1991 E_bond   =         0.0000 E_angle  =         0.0000 
E_vdwl   =       918.3145 E_coul   =     14022.2626 E_long   =    -19225.7763 
Press    =     -2625.2254 Density  =         0.6977 Lx       =        24.5000 
SHAKE stats (type/ave/delta/count) on step 2700
     1   1.00000   9.08738e-07     1029
     1   109.470   7.87221e-05      343
---------------- Step     2700 ----- CPU =      5.1604 (sec) ----------------
TotEng   =     -4231.8866 Temp     =        25.7763 KinEng   =        52.6315 
PotEng   =     -4284.5181 E_bond   =         0.0000 E_angle  =         0.0000 
E_vdwl   =       903.5275 E_coul   =     14037.3629 E_long   =    -19225.4085 
Press    =     -2845.2295 Density  =         0.6977 Lx       =        24.5000 
SHAKE stats (type/ave/delta/count) on step 2800
     1   1.00000   9.21290e-07     1029
     1   109.470   8.45993e-05      343
---------------- Step     2800 ----- CPU =      5.3419 (sec) ----------------
TotEng   =     -4229.4042 Temp     =        25.8080 KinEng   =        52.6962 
PotEng   =     -4282.1004 E_bond   =         0.0000 E_angle  =         0.0000 
E_vdwl   =       893.9222 E_coul   =     14050.3091 E_long   =    -19226.3317 
Press    =     -2943.6393 Density  =         0.6977 Lx       =        24.5000 
SHAKE stats (type/ave/delta/count) on step 2900
     1   1.00000   9.16469e-07     1029
     1   109.470   8.06777e-05      343
---------------- Step     2900 ----- CPU =      5.5623 (sec) ----------------
TotEng   =     -4227.2608 Temp     =        26.4786 KinEng   =        54.0654 
PotEng   =     -4281.3261 E_bond   =         0.0000 E_angle  =         0.0000 
E_vdwl   =       895.3319 E_coul   =     14050.2188 E_long   =    -19226.8769 
Press    =     -2902.2289 Density  =         0.6977 Lx       =        24.5000 
SHAKE stats (type/ave/delta/count) on step 3000
     1   1.00000   9.14154e-07     1029
     1   109.470   7.93273e-05      343
---------------- Step     3000 ----- CPU =      5.7736 (sec) ----------------
TotEng   =     -4224.2109 Temp     =        26.3207 KinEng   =        53.7431 
PotEng   =     -4277.9541 E_bond   =         0.0000 E_angle  =         0.0000 
E_vdwl   =       895.2326 E_coul   =     14053.6724 E_long   =    -19226.8590 
Press    =     -2888.4315 Density  =         0.6977 Lx       =        24.5000 
SHAKE stats (type/ave/delta/count) on step 3100
     1   1.00000   8.57912e-07     1029
     1   109.470   7.95056e-05      343
---------------- Step     3100 ----- CPU =      5.9607 (sec) ----------------
TotEng   =     -4219.4177 Temp     =        28.7077 KinEng   =        58.6171 
PotEng   =     -4278.0348 E_bond   =         0.0000 E_angle  =         0.0000 
E_vdwl   =       885.8762 E_coul   =     14061.6502 E_long   =    -19225.5612 
Press    =     -3029.8440 Density  =         0.6977 Lx       =        24.5000 
SHAKE stats (type/ave/delta/count) on step 3200
     1   1.00000   9.01525e-07     1029
     1   109.470   7.74895e-05      343
---------------- Step     3200 ----- CPU =      6.1587 (sec) ----------------
TotEng   =     -4218.7572 Temp     =        31.1969 KinEng   =        63.6996 
PotEng   =     -4282.4567 E_bond   =         0.0000 E_angle  =         0.0000 
E_vdwl   =       912.8088 E_coul   =     14030.2020 E_long   =    -19225.4675 
Press    =     -2649.7352 Density  =         0.6977 Lx       =        24.5000 
SHAKE stats (type/ave/delta/count) on step 3300
     1   1.00000   1.09918e-06     1029
     1   109.470   8.47153e-05      343
---------------- Step     3300 ----- CPU =      6.3547 (sec) ----------------
TotEng   =     -4224.7627 Temp     =        29.0020 KinEng   =        59.2180 
PotEng   =     -4283.9807 E_bond   =         0.0000 E_angle  =         0.0000 
E_vdwl   =       907.0598 E_coul   =     14033.8803 E_long   =    -19224.9209 
Press    =     -2761.8987 Density  =         0.6977 Lx       =        24.5000 
SHAKE stats (type/ave/delta/count) on step 3400
     1   1.00000   8.37681e-07     1029
     1   109.470   8.48242e-05      343
---------------- Step     3400 ----- CPU =      6.5551 (sec) ----------------
TotEng   =     -4228.5209 Temp     =        26.7588 KinEng   =        54.6375 
PotEng   =     -4283.1584 E_bond   =         0.0000 E_angle  =         0.0000 
E_vdwl   =       890.1518 E_coul   =     14051.9605 E_long   =    -19225.2706 
Press    =     -3027.7864 Density  =         0.6977 Lx       =        24.5000 
SHAKE stats (type/ave/delta/count) on step 3500
     1   1.00000   9.30384e-07     1029
     1   109.470   7.98392e-05      343
---------------- Step     3500 ----- CPU =      6.7558 (sec) ----------------
TotEng   =     -4224.3435 Temp     =        30.3833 KinEng   =        62.0383 
PotEng   =     -4286.3818 E_bond   =         0.0000 E_angle  =         0.0000 
E_vdwl   =       895.0500 E_coul   =     14044.1367 E_long   =    -19225.5685 
Press    =     -2935.3772 Density  =         0.6977 Lx       =        24.5000 
SHAKE stats (type/ave/delta/count) on step 3600
     1   1.00000   8.87694e-07     1029
     1   109.470   8.22050e-05      343
---------------- Step     3600 ----- CPU =      6.9448 (sec) ----------------
TotEng   =     -4219.7556 Temp     =        30.0606 KinEng   =        61.3794 
PotEng   =     -4281.1350 E_bond   =         0.0000 E_angle  =         0.0000 
E_vdwl   =       909.9253 E_coul   =     14034.5484 E_long   =    -19225.6087 
Press    =     -2682.2770 Density  =         0.6977 Lx       =        24.5000 
SHAKE stats (type/ave/delta/count) on step 3700
     1   1.00000   9.18401e-07     1029
     1   109.470   8.26056e-05      343
---------------- Step     3700 ----- CPU =      7.1206 (sec) ----------------
TotEng   =     -4214.3426 Temp     =        31.8039 KinEng   =        64.9390 
PotEng   =     -4279.2816 E_bond   =         0.0000 E_angle  =         0.0000 
E_vdwl   =       906.4870 E_coul   =     14039.1932 E_long   =    -19224.9618 
Press    =     -2737.9575 Density  =         0.6977 Lx       =        24.5000 
SHAKE stats (type/ave/delta/count) on step 3800
     1   1.00000   1.10628e-06     1029
     1   109.470   7.91678e-05      343
---------------- Step     3800 ----- CPU =      7.2984 (sec) ----------------
TotEng   =     -4210.2550 Temp     =        34.0159 KinEng   =        69.4555 
PotEng   =     -4279.7105 E_bond   =         0.0000 E_angle  =         0.0000 
E_vdwl   =       904.6876 E_coul   =     14040.0980 E_long   =    -19224.4962 
Press    =     -2811.8187 Density  =         0.6977 Lx       =        24.5000 
SHAKE stats (type/ave/delta/count) on step 3900
     1   1.00000   9.96415e-07     1029
     1   109.470   8.45243e-05      343
---------------- Step     3900 ----- CPU =      7.4747 (sec) ----------------
TotEng   =     -4210.3985 Temp     =        35.8988 KinEng   =        73.3001 
PotEng   =     -4283.6986 E_bond   =         0.0000 E_angle  =         0.0000 
E_vdwl   =       902.4312 E_coul   =     14038.8814 E_long   =    -19225.0112 
Press    =     -2873.8391 Density  =         0.6977 Lx       =        24.5000 
SHAKE stats (type/ave/delta/count) on step 4000
     1   1.00000   1.02587e-06     1029
     1   109.470   8.09228e-05      343
---------------- Step     4000 ----- CPU =      7.6568 (sec) ----------------
TotEng   =     -4217.2537 Temp     =        31.5651 KinEng   =        64.4513 
PotEng   =     -4281.7050 E_bond   =         0.0000 E_angle  =         0.0000 
E_vdwl   =       892.3673 E_coul   =     14050.9203 E_long   =    -19224.9926 
Press    =     -3056.7179 Density  =         0.6977 Lx       =        24.5000 
SHAKE stats (type/ave/delta/count) on step 4100
     1   1.00000   9.75815e-07     1029
     1   109.470   7.87747e-05      343
---------------- Step     4100 ----- CPU =      7.8466 (sec) ----------------
TotEng   =     -4218.9598 Temp     =        33.2519 KinEng   =        67.8956 
PotEng   =     -4286.8554 E_bond   =         0.0000 E_angle  =         0.0000 
E_vdwl   =       893.7236 E_coul   =     14044.5131 E_long   =    -19225.0921 
Press    =     -3060.6074 Density  =         0.6977 Lx       =        24.5000 
SHAKE stats (type/ave/delta/count) on step 4200
     1   1.00000   9.33437e-07     1029
     1   109.470   7.94004e-05      343
---------------- Step     4200 ----- CPU =      8.0267 (sec) ----------------
TotEng   =     -4216.2911 Temp     =        35.8946 KinEng   =        73.2917 
PotEng   =     -4289.5828 E_bond   =         0.0000 E_angle  =         0.0000 
E_vdwl   =       908.9495 E_coul   =     14027.2342 E_long   =    -19225.7665 
Press    =     -2822.5375 Density  =         0.6977 Lx       =        24.5000 
SHAKE stats (type/ave/delta/count) on step 4300
     1   1.00000   9.86210e-07     1029
     1   109.470   8.41256e-05      343
---------------- Step     4300 ----- CPU =      8.2165 (sec) ----------------
TotEng   =     -4214.4747 Temp     =        32.7714 KinEng   =        66.9144 
PotEng   =     -4281.3890 E_bond   =         0.0000 E_angle  =         0.0000 
E_vdwl   =       900.5765 E_coul   =     14043.3839 E_long   =    -19225.3494 
Press    =     -2892.9880 Density  =         0.6977 Lx       =        24.5000 
SHAKE stats (type/ave/delta/count) on step 4400
     1   1.00000   9.11228e-07     1029
     1   109.470   8.04140e-05      343
---------------- Step     4400 ----- CPU =      8.3981 (sec) ----------------
TotEng   =     -4209.8766 Temp     =        35.0931 KinEng   =        71.6550 
PotEng   =     -4281.5316 E_bond   =         0.0000 E_angle  =         0.0000 
E_vdwl   =       915.5195 E_coul   =     14028.3017 E_long   =    -19225.3528 
Press    =     -2606.8632 Density  =         0.6977 Lx       =        24.5000 
SHAKE stats (type/ave/delta/count) on step 4500
     1   1.00000   9.62850e-07     1029
     1   109.470   8.40579e-05      343
---------------- Step     4500 ----- CPU =      8.5886 (sec) ----------------
TotEng   =     -4207.2593 Temp     =        36.0549 KinEng   =        73.6188 
PotEng   =     -4280.8780 E_bond   =         0.0000 E_angle  =         0.0000 
E_vdwl   =       918.4680 E_coul   =     14026.3360 E_long   =    -19225.6821 
Press    =     -2541.4515 Density  =         0.6977 Lx       =        24.5000 
SHAKE stats (type/ave/delta/count) on step 4600
     1   1.00000   9.31703e-07     1029
     1   109.470   7.78528e-05      343
---------------- Step     4600 ----- CPU =      8.8178 (sec) ----------------
TotEng   =     -4205.4759 Temp     =        38.0855 KinEng   =        77.7650 
PotEng   =     -4283.2408 E_bond   =         0.0000 E_angle  =         0.0000 
E_vdwl   =       910.9990 E_coul   =     14032.2839 E_long   =    -19226.5237 
Press    =     -2668.8491 Density  =         0.6977 Lx       =        24.5000 
SHAKE stats (type/ave/delta/count) on step 4700
     1   1.00000   1.68575e-06     1029
     1   109.470   8.49277e-05      343
---------------- Step     4700 ----- CPU =      9.0376 (sec) ----------------
TotEng   =     -4208.9127 Temp     =        36.6090 KinEng   =        74.7504 
PotEng   =     -4283.6631 E_bond   =         0.0000 E_angle  =         0.0000 
E_vdwl   =       923.7434 E_coul   =     14018.9622 E_long   =    -19226.3687 
Press    =     -2475.6595 Density  =         0.6977 Lx       =        24.5000 
SHAKE stats (type/ave/delta/count) on step 4800
     1   1.00000   9.76977e-07     1029
     1   109.470   8.56197e-05      343
---------------- Step     4800 ----- CPU =      9.2214 (sec) ----------------
TotEng   =     -4212.3695 Temp     =        36.7463 KinEng   =        75.0306 
PotEng   =     -4287.4001 E_bond   =         0.0000 E_angle  =         0.0000 
E_vdwl   =       933.1919 E_coul   =     14004.7834 E_long   =    -19225.3754 
Press    =     -2374.8390 Density  =         0.6977 Lx       =        24.5000 
SHAKE stats (type/ave/delta/count) on step 4900
     1   1.00000   9.69680e-07     1029
     1   109.470   8.75845e-05      343
---------------- Step     4900 ----- CPU =      9.4110 (sec) ----------------
TotEng   =     -4210.2208 Temp     =        38.4026 KinEng   =        78.4125 
PotEng   =     -4288.6333 E_bond   =         0.0000 E_angle  =         0.0000 
E_vdwl   =       927.8347 E_coul   =     14010.0934 E_long   =    -19226.5614 
Press    =     -2494.5946 Density  =         0.6977 Lx       =        24.5000 
SHAKE stats (type/ave/delta/count) on step 5000
     1   1.00000   9.73729e-07     1029
     1   109.470   7.93623e-05      343
---------------- Step     5000 ----- CPU =      9.6083 (sec) ----------------
TotEng   =     -4209.2085 Temp     =        39.0637 KinEng   =        79.7624 
PotEng   =     -4288.9709 E_bond   =         0.0000 E_angle  =         0.0000 
E_vdwl   =       924.9230 E_coul   =     14012.8383 E_long   =    -19226.7322 
Press    =     -2534.3087 Density  =         0.6977 Lx       =        24.5000 
SHAKE stats (type/ave/delta/count) on step 5100
     1   1.00000   1.07049e-06     1029
     1   109.470   8.80354e-05      343
---------------- Step     5100 ----- CPU =      9.7914 (sec) ----------------
TotEng   =     -4208.7446 Temp     =        36.5361 KinEng   =        74.6015 
PotEng   =     -4283.3461 E_bond   =         0.0000 E_angle  =         0.0000 
E_vdwl   =       919.0326 E_coul   =     14023.7861 E_long   =    -19226.1649 
Press    =     -2630.4202 Density  =         0.6977 Lx       =        24.5000 
SHAKE stats (type/ave/delta/count) on step 5200
     1   1.00000   8.86083e-07     1029
     1   109.470   7.97956e-05      343
---------------- Step     5200 ----- CPU =      9.9977 (sec) ----------------
TotEng   =     -4201.0580 Temp     =        40.9373 KinEng   =        83.5881 
PotEng   =     -4284.6461 E_bond   =         0.0000 E_angle  =         0.0000 
E_vdwl   =       911.5775 E_coul   =     14030.4714 E_long   =    -19226.6951 
Press    =     -2751.2840 Density  =         0.6977 Lx       =        24.5000 
SHAKE stats (type/ave/delta/count) on step 5300
     1   1.00000   9.82785e-07     1029
     1   109.470   8.39305e-05      343
---------------- Step     5300 ----- CPU =     10.1898 (sec) ----------------
TotEng   =     -4200.4379 Temp     =        41.6495 KinEng   =        85.0423 
PotEng   =     -4285.4802 E_bond   =         0.0000 E_angle  =         0.0000 
E_vdwl   =       928.4191 E_coul   =     14013.0705 E_long   =    -19226.9698 
Press    =     -2486.1970 Density  =         0.6977 Lx       =        24.5000 
SHAKE stats (type/ave/delta/count) on step 5400
     1   1.00000   9.95229e-07     1029
     1   109.470   8.37522e-05      343
---------------- Step     5400 ----- CPU =     10.3654 (sec) ----------------
TotEng   =     -4203.0239 Temp     =        40.8876 KinEng   =        83.4865 
PotEng   =     -4286.5104 E_bond   =         0.0000 E_angle  =         0.0000 
E_vdwl   =       958.8900 E_coul   =     13979.3076 E_long   =    -19224.7080 
Press    =     -2027.3000 Density  =         0.6977 Lx       =        24.5000 
SHAKE stats (type/ave/delta/count) on step 5500
     1   1.00000   8.65682e-07     1029
     1   109.470   7.89150e-05      343
---------------- Step     5500 ----- CPU =     10.5657 (sec) ----------------
TotEng   =     -4204.6609 Temp     =        38.9238 KinEng   =        79.4767 
PotEng   =     -4284.1376 E_bond   =         0.0000 E_angle  =         0.0000 
E_vdwl   =       951.2557 E_coul   =     13989.5653 E_long   =    -19224.9586 
Press    =     -2130.5663 Density  =         0.6977 Lx       =        24.5000 
SHAKE stats (type/ave/delta/count) on step 5600
     1   1.00000   9.01113e-07     1029
     1   109.470   7.91004e-05      343
---------------- Step     5600 ----- CPU =     10.7557 (sec) ----------------
TotEng   =     -4197.9471 Temp     =        40.7546 KinEng   =        83.2150 
PotEng   =     -4281.1621 E_bond   =         0.0000 E_angle  =         0.0000 
E_vdwl   =       954.9310 E_coul   =     13990.0844 E_long   =    -19226.1775 
Press    =     -2052.5489 Density  =         0.6977 Lx       =        24.5000 
SHAKE stats (type/ave/delta/count) on step 5700
     1   1.00000   8.87733e-07     1029
     1   109.470   8.30286e-05      343
---------------- Step     5700 ----- CPU =     10.9448 (sec) ----------------
TotEng   =     -4194.3844 Temp     =        44.0549 KinEng   =        89.9537 
PotEng   =     -4284.3381 E_bond   =         0.0000 E_angle  =         0.0000 
E_vdwl   =       942.3221 E_coul   =     13998.7244 E_long   =    -19225.3846 
Press    =     -2211.3583 Density  =         0.6977 Lx       =        24.5000 
SHAKE stats (type/ave/delta/count) on step 5800
     1   1.00000   9.79320e-07     1029
     1   109.470   8.31878e-05      343
---------------- Step     5800 ----- CPU =     11.1132 (sec) ----------------
TotEng   =     -4195.6473 Temp     =        42.0540 KinEng   =        85.8682 
PotEng   =     -4281.5155 E_bond   =         0.0000 E_angle  =         0.0000 
E_vdwl   =       900.2900 E_coul   =     14044.2935 E_long   =    -19226.0990 
Press    =     -2807.6685 Density  =         0.6977 Lx       =        24.5000 
SHAKE stats (type/ave/delta/count) on step 5900
     1   1.00000   9.26231e-07     1029
     1   109.470   8.43312e-05      343
---------------- Step     5900 ----- CPU =     11.2980 (sec) ----------------
TotEng   =     -4196.5016 Temp     =        43.1448 KinEng   =        88.0955 
PotEng   =     -4284.5970 E_bond   =         0.0000 E_angle  =         0.0000 
E_vdwl   =       934.5682 E_coul   =     14005.9355 E_long   =    -19225.1008 
Press    =     -2326.7781 Density  =         0.6977 Lx       =        24.5000 
SHAKE stats (type/ave/delta/count) on step 6000
     1   1.00000   1.00968e-06     1029
     1   109.470   8.41818e-05      343
---------------- Step     6000 ----- CPU =     11.4777 (sec) ----------------
TotEng   =     -4193.3211 Temp     =        43.8338 KinEng   =        89.5022 
PotEng   =     -4282.8233 E_bond   =         0.0000 E_angle  =         0.0000 
E_vdwl   =       910.4420 E_coul   =     14032.9340 E_long   =    -19226.1993 
Press    =     -2647.2352 Density  =         0.6977 Lx       =        24.5000 
SHAKE stats (type/ave/delta/count) on step 6100
     1   1.00000   1.01582e-06     1029
     1   109.470   7.84352e-05      343
---------------- Step     6100 ----- CPU =     11.6707 (sec) ----------------
TotEng   =     -4186.7067 Temp     =        44.2385 KinEng   =        90.3286 
PotEng   =     -4277.0353 E_bond   =         0.0000 E_angle  =         0.0000 
E_vdwl   =       946.6388 E_coul   =     14003.1262 E_long   =    -19226.8003 
Press    =     -2088.0512 Density  =         0.6977 Lx       =        24.5000 
SHAKE stats (type/ave/delta/count) on step 6200
     1   1.00000   9.34762e-07     1029
     1   109.470   8.05110e-05      343
---------------- Step     6200 ----- CPU =     11.8606 (sec) ----------------
TotEng   =     -4185.7818 Temp     =        45.2219 KinEng   =        92.3365 
PotEng   =     -4278.1183 E_bond   =         0.0000 E_angle  =         0.0000 
E_vdwl   =       954.6749 E_coul   =     13991.6702 E_long   =    -19224.4634 
Press    =     -1985.9844 Density  =         0.6977 Lx       =        24.5000 
SHAKE stats (type/ave/delta/count) on step 6300
     1   1.00000   8.84972e-07     1029
     1   109.470   7.97235e-05      343
---------------- Step     6300 ----- CPU =     12.0633 (sec) ----------------
TotEng   =     -4185.6753 Temp     =        47.8958 KinEng   =        97.7963 
PotEng   =     -4283.4716 E_bond   =         0.0000 E_angle  =         0.0000 
E_vdwl   =       949.6023 E_coul   =     13991.2888 E_long   =    -19224.3627 
Press    =     -2118.1057 Density  =         0.6977 Lx       =        24.5000 
SHAKE stats (type/ave/delta/count) on step 6400
     1   1.00000   9.17029e-07     1029
     1   109.470   7.46252e-05      343
---------------- Step     6400 ----- CPU =     12.2579 (sec) ----------------
TotEng   =     -4190.4223 Temp     =        45.0435 KinEng   =        91.9723 
PotEng   =     -4282.3946 E_bond   =         0.0000 E_angle  =         0.0000 
E_vdwl   =       920.7902 E_coul   =     14021.6773 E_long   =    -19224.8620 
Press    =     -2554.8586 Density  =         0.6977 Lx       =        24.5000 
SHAKE stats (type/ave/delta/count) on step 6500
     1   1.00000   1.02743e-06     1029
     1   109.470   8.18684e-05      343
---------------- Step     6500 ----- CPU =     12.4339 (sec) ----------------
TotEng   =     -4192.4777 Temp     =        45.4869 KinEng   =        92.8777 
PotEng   =     -4285.3554 E_bond   =         0.0000 E_angle  =         0.0000 
E_vdwl   =       946.4257 E_coul   =     13993.4410 E_long   =    -19225.2222 
Press    =     -2117.7336 Density  =         0.6977 Lx       =        24.5000 
SHAKE stats (type/ave/delta/count) on step 6600
     1   1.00000   9.57336e-07     1029
     1   109.470   8.39681e-05      343
---------------- Step     6600 ----- CPU =     12.6180 (sec) ----------------
TotEng   =     -4186.2229 Temp     =        46.6050 KinEng   =        95.1607 
PotEng   =     -4281.3835 E_bond   =         0.0000 E_angle  =         0.0000 
E_vdwl   =       918.5373 E_coul   =     14024.6625 E_long   =    -19224.5833 
Press    =     -2519.5337 Density  =         0.6977 Lx       =        24.5000 
SHAKE stats (type/ave/delta/count) on step 6700
     1   1.00000   1.17658e-06     1029
     1   109.470   8.38300e-05      343
---------------- Step     6700 ----- CPU =     12.8045 (sec) ----------------
TotEng   =     -4181.2362 Temp     =        50.5152 KinEng   =       103.1448 
PotEng   =     -4284.3810 E_bond   =         0.0000 E_angle  =         0.0000 
E_vdwl   =       910.0384 E_coul   =     14030.2751 E_long   =    -19224.6945 
Press    =     -2699.3151 Density  =         0.6977 Lx       =        24.5000 
SHAKE stats (type/ave/delta/count) on step 6800
     1   1.00000   1.10554e-06     1029
     1   109.470   8.26401e-05      343
---------------- Step     6800 ----- CPU =     13.0002 (sec) ----------------
TotEng   =     -4182.5261 Temp     =        49.9524 KinEng   =       101.9956 
PotEng   =     -4284.5217 E_bond   =         0.0000 E_angle  =         0.0000 
E_vdwl   =       895.6390 E_coul   =     14043.9733 E_long   =    -19224.1340 
Press    =     -2934.0484 Density  =         0.6977 Lx       =        24.5000 
SHAKE stats (type/ave/delta/count) on step 6900
     1   1.00000   1.05471e-06     1029
     1   109.470   8.52959e-05      343
---------------- Step     6900 ----- CPU =     13.1923 (sec) ----------------
TotEng   =     -4187.0435 Temp     =        50.4326 KinEng   =       102.9761 
PotEng   =     -4290.0196 E_bond   =         0.0000 E_angle  =         0.0000 
E_vdwl   =       901.6057 E_coul   =     14033.9060 E_long   =    -19225.5312 
Press    =     -2771.7001 Density  =         0.6977 Lx       =        24.5000 
SHAKE stats (type/ave/delta/count) on step 7000
     1   1.00000   9.26930e-07     1029
     1   109.470   8.44806e-05      343
---------------- Step     7000 ----- CPU =     13.3994 (sec) ----------------
TotEng   =     -4192.9386 Temp     =        50.7166 KinEng   =       103.5559 
PotEng   =     -4296.4945 E_bond   =         0.0000 E_angle  =         0.0000 
E_vdwl   =       940.9324 E_coul   =     13985.8629 E_long   =    -19223.2898 
Press    =     -2216.2094 Density  =         0.6977 Lx       =        24.5000 
SHAKE stats (type/ave/delta/count) on step 7100
     1   1.00000   9.20774e-07     1029
     1   109.470   8.33856e-05      343
---------------- Step     7100 ----- CPU =     13.5859 (sec) ----------------
TotEng   =     -4195.7979 Temp     =        48.5852 KinEng   =        99.2040 
PotEng   =     -4295.0019 E_bond   =         0.0000 E_angle  =         0.0000 
E_vdwl   =       947.4101 E_coul   =     13981.9477 E_long   =    -19224.3596 
Press    =     -2104.7706 Density  =         0.6977 Lx       =        24.5000 
SHAKE stats (type/ave/delta/count) on step 7200
     1   1.00000   9.41417e-07     1029
     1   109.470   8.09169e-05      343
---------------- Step     7200 ----- CPU =     13.7691 (sec) ----------------
TotEng   =     -4192.0435 Temp     =        50.3697 KinEng   =       102.8475 
PotEng   =     -4294.8911 E_bond   =         0.0000 E_angle  =         0.0000 
E_vdwl   =       905.4498 E_coul   =     14023.8113 E_long   =    -19224.1522 
Press    =     -2714.5445 Density  =         0.6977 Lx       =        24.5000 
SHAKE stats (type/ave/delta/count) on step 7300
     1   1.00000   8.89214e-07     1029
     1   109.470   8.64510e-05      343
---------------- Step     7300 ----- CPU =     13.9629 (sec) ----------------
TotEng   =     -4185.8629 Temp     =        51.9614 KinEng   =       106.0977 
PotEng   =     -4291.9607 E_bond   =         0.0000 E_angle  =         0.0000 
E_vdwl   =       924.6328 E_coul   =     14008.0358 E_long   =    -19224.6292 
Press    =     -2424.5099 Density  =         0.6977 Lx       =        24.5000 
SHAKE stats (type/ave/delta/count) on step 7400
     1   1.00000   1.08707e-06     1029
     1   109.470   8.39836e-05      343
---------------- Step     7400 ----- CPU =     14.1522 (sec) ----------------
TotEng   =     -4179.8870 Temp     =        54.3663 KinEng   =       111.0081 
PotEng   =     -4290.8951 E_bond   =         0.0000 E_angle  =         0.0000 
E_vdwl   =       961.7089 E_coul   =     13970.7154 E_long   =    -19223.3194 
Press    =     -1887.6990 Density  =         0.6977 Lx       =        24.5000 
SHAKE stats (type/ave/delta/count) on step 7500
     1   1.00000   9.83900e-07     1029
     1   109.470   8.07581e-05      343
---------------- Step     7500 ----- CPU =     14.3540 (sec) ----------------
TotEng   =     -4179.7821 Temp     =        54.4117 KinEng   =       111.1007 
PotEng   =     -4290.8828 E_bond   =         0.0000 E_angle  =         0.0000 
E_vdwl   =       937.0101 E_coul   =     13995.6314 E_long   =    -19223.5243 
Press    =     -2221.8621 Density  =         0.6977 Lx       =        24.5000 
SHAKE stats (type/ave/delta/count) on step 7600
     1   1.00000   1.07127e-06     1029
     1   109.470   7.96358e-05      343
---------------- Step     7600 ----- CPU =     14.5756 (sec) ----------------
TotEng   =     -4183.7856 Temp     =        51.7732 KinEng   =       105.7133 
PotEng   =     -4289.4989 E_bond   =         0.0000 E_angle  =         0.0000 
E_vdwl   =       933.8720 E_coul   =     14000.2245 E_long   =    -19223.5954 
Press    =     -2284.9947 Density  =         0.6977 Lx       =        24.5000 
SHAKE stats (type/ave/delta/count) on step 7700
     1   1.00000   9.08322e-07     1029
     1   109.470   8.44345e-05      343
---------------- Step     7700 ----- CPU =     14.7825 (sec) ----------------
TotEng   =     -4186.4806 Temp     =        53.4960 KinEng   =       109.2310 
PotEng   =     -4295.7116 E_bond   =         0.0000 E_angle  =         0.0000 
E_vdwl   =       946.8514 E_coul   =     13981.1960 E_long   =    -19223.7591 
Press    =     -2070.8177 Density  =         0.6977 Lx       =        24.5000 
SHAKE stats (type/ave/delta/count) on step 7800
     1   1.00000   8.67636e-07     1029
     1   109.470   8.44270e-05      343
---------------- Step     7800 ----- CPU =     14.9574 (sec) ----------------
TotEng   =     -4188.6192 Temp     =        52.6437 KinEng   =       107.4908 
PotEng   =     -4296.1101 E_bond   =         0.0000 E_angle  =         0.0000 
E_vdwl   =       905.9776 E_coul   =     14020.6264 E_long   =    -19222.7140 
Press    =     -2707.2520 Density  =         0.6977 Lx       =        24.5000 
SHAKE stats (type/ave/delta/count) on step 7900
     1   1.00000   8.58790e-07     1029
     1   109.470   8.42370e-05      343
---------------- Step     7900 ----- CPU =     15.1428 (sec) ----------------
TotEng   =     -4180.1905 Temp     =        58.7200 KinEng   =       119.8976 
PotEng   =     -4300.0881 E_bond   =         0.0000 E_angle  =         0.0000 
E_vdwl   =       928.0874 E_coul   =     13996.5516 E_long   =    -19224.7271 
Press    =     -2375.5110 Density  =         0.6977 Lx       =        24.5000 
SHAKE stats (type/ave/delta/count) on step 8000
     1   1.00000   8.16883e-07     1029
     1   109.470   7.84481e-05      343
---------------- Step     8000 ----- CPU =     15.3338 (sec) ----------------
TotEng   =     -4175.8002 Temp     =        57.7192 KinEng   =       117.8542 
PotEng   =     -4293.6544 E_bond   =         0.0000 E_angle  =         0.0000 
E_vdwl   =       914.6753 E_coul   =     14016.7105 E_long   =    -19225.0402 
Press    =     -2548.7783 Density  =         0.6977 Lx       =        24.5000 
SHAKE stats (type/ave/delta/count) on step 8100
     1   1.00000   9.94415e-07     1029
     1   109.470   8.91649e-05      343
---------------- Step     8100 ----- CPU =     15.5320 (sec) ----------------
TotEng   =     -4176.6347 Temp     =        57.0904 KinEng   =       116.5703 
PotEng   =     -4293.2049 E_bond   =         0.0000 E_angle  =         0.0000 
E_vdwl   =       911.3141 E_coul   =     14019.4260 E_long   =    -19223.9451 
Press    =     -2638.8051 Density  =         0.6977 Lx       =        24.5000 
SHAKE stats (type/ave/delta/count) on step 8200
     1   1.00000   1.01334e-06     1029
     1   109.470   8.42148e-05      343
---------------- Step     8200 ----- CPU =     15.7367 (sec) ----------------
TotEng   =     -4179.5157 Temp     =        55.1404 KinEng   =       112.5887 
PotEng   =     -4292.1043 E_bond   =         0.0000 E_angle  =         0.0000 
E_vdwl   =       935.4539 E_coul   =     13995.0324 E_long   =    -19222.5906 
Press    =     -2240.5998 Density  =         0.6977 Lx       =        24.5000 
SHAKE stats (type/ave/delta/count) on step 8300
     1   1.00000   9.58194e-07     1029
     1   109.470   8.22393e-05      343
---------------- Step     8300 ----- CPU =     15.9360 (sec) ----------------
TotEng   =     -4174.1036 Temp     =        57.2539 KinEng   =       116.9041 
PotEng   =     -4291.0077 E_bond   =         0.0000 E_angle  =         0.0000 
E_vdwl   =       939.6339 E_coul   =     13992.7323 E_long   =    -19223.3739 
Press    =     -2118.8049 Density  =         0.6977 Lx       =        24.5000 
SHAKE stats (type/ave/delta/count) on step 8400
     1   1.00000   1.04733e-06     1029
     1   109.470   7.71391e-05      343
---------------- Step     8400 ----- CPU =     16.1328 (sec) ----------------
TotEng   =     -4167.3371 Temp     =        61.3517 KinEng   =       125.2712 
PotEng   =     -4292.6083 E_bond   =         0.0000 E_angle  =         0.0000 
E_vdwl   =       922.1667 E_coul   =     14009.1797 E_long   =    -19223.9547 
Press    =     -2434.1037 Density  =         0.6977 Lx       =        24.5000 
SHAKE stats (type/ave/delta/count) on step 8500
     1   1.00000   9.79773e-07     1029
     1   109.470   8.05657e-05      343
---------------- Step     8500 ----- CPU =     16.3266 (sec) ----------------
TotEng   =     -4169.2593 Temp     =        58.7751 KinEng   =       120.0103 
PotEng   =     -4289.2696 E_bond   =         0.0000 E_angle  =         0.0000 
E_vdwl   =       907.3239 E_coul   =     14028.7725 E_long   =    -19225.3660 
Press    =     -2627.5989 Density  =         0.6977 Lx       =        24.5000 
SHAKE stats (type/ave/delta/count) on step 8600
     1   1.00000   9.60639e-07     1029
     1   109.470   7.82710e-05      343
---------------- Step     8600 ----- CPU =     16.5551 (sec) ----------------
TotEng   =     -4169.1425 Temp     =        57.8910 KinEng   =       118.2051 
PotEng   =     -4287.3476 E_bond   =         0.0000 E_angle  =         0.0000 
E_vdwl   =       918.7148 E_coul   =     14019.6247 E_long   =    -19225.6871 
Press    =     -2485.7514 Density  =         0.6977 Lx       =        24.5000 
SHAKE stats (type/ave/delta/count) on step 8700
     1   1.00000   9.18064e-07     1029
     1   109.470   9.31873e-05      343
---------------- Step     8700 ----- CPU =     16.7684 (sec) ----------------
TotEng   =     -4160.3073 Temp     =        60.6369 KinEng   =       123.8118 
PotEng   =     -4284.1192 E_bond   =         0.0000 E_angle  =         0.0000 
E_vdwl   =       910.9586 E_coul   =     14031.5739 E_long   =    -19226.6517 
Press    =     -2577.2118 Density  =         0.6977 Lx       =        24.5000 
SHAKE stats (type/ave/delta/count) on step 8800
     1   1.00000   1.02877e-06     1029
     1   109.470   8.71957e-05      343
---------------- Step     8800 ----- CPU =     16.9696 (sec) ----------------
TotEng   =     -4154.9531 Temp     =        65.7548 KinEng   =       134.2617 
PotEng   =     -4289.2148 E_bond   =         0.0000 E_angle  =         0.0000 
E_vdwl   =       926.0517 E_coul   =     14010.4541 E_long   =    -19225.7206 
Press    =     -2285.0132 Density  =         0.6977 Lx       =        24.5000 
SHAKE stats (type/ave/delta/count) on step 8900
     1   1.00000   9.83860e-07     1029
     1   109.470   8.59272e-05      343
---------------- Step     8900 ----- CPU =     17.1788 (sec) ----------------
TotEng   =     -4159.2333 Temp     =        60.5977 KinEng   =       123.7318 
PotEng   =     -4282.9651 E_bond   =         0.0000 E_angle  =         0.0000 
E_vdwl   =       936.3251 E_coul   =     14005.8833 E_long   =    -19225.1735 
Press    =     -2114.6889 Density  =         0.6977 Lx       =        24.5000 
SHAKE stats (type/ave/delta/count) on step 9000
     1   1.00000   9.39642e-07     1029
     1   109.470   7.83427e-05      343
---------------- Step     9000 ----- CPU =     17.3660 (sec) ----------------
TotEng   =     -4163.5546 Temp     =        59.2747 KinEng   =       121.0304 
PotEng   =     -4284.5850 E_bond   =         0.0000 E_angle  =         0.0000 
E_vdwl   =       944.9211 E_coul   =     13993.1745 E_long   =    -19222.6806 
Press    =     -2011.4190 Density  =         0.6977 Lx       =        24.5000 
SHAKE stats (type/ave/delta/count) on step 9100
     1   1.00000   9.80054e-07     1029
     1   109.470   9.27779e-05      343
---------------- Step     9100 ----- CPU =     17.5633 (sec) ----------------
TotEng   =     -4159.5999 Temp     =        61.9363 KinEng   =       126.4650 
PotEng   =     -4286.0649 E_bond   =         0.0000 E_angle  =         0.0000 
E_vdwl   =       919.7065 E_coul   =     14018.2192 E_long   =    -19223.9906 
Press    =     -2414.5406 Density  =         0.6977 Lx       =        24.5000 
SHAKE stats (type/ave/delta/count) on step 9200
     1   1.00000   9.46802e-07     1029
     1   109.470   8.36207e-05      343
---------------- Step     9200 ----- CPU =     17.7515 (sec) ----------------
TotEng   =     -4151.0798 Temp     =        64.3291 KinEng   =       131.3508 
PotEng   =     -4282.4306 E_bond   =         0.0000 E_angle  =         0.0000 
E_vdwl   =       893.8066 E_coul   =     14046.2771 E_long   =    -19222.5143 
Press    =     -2798.3126 Density  =         0.6977 Lx       =        24.5000 
SHAKE stats (type/ave/delta/count) on step 9300
     1   1.00000   9.18449e-07     1029
     1   109.470   7.61860e-05      343
---------------- Step     9300 ----- CPU =     17.9446 (sec) ----------------
TotEng   =     -4150.1380 Temp     =        65.2858 KinEng   =       133.3042 
PotEng   =     -4283.4422 E_bond   =         0.0000 E_angle  =         0.0000 
E_vdwl   =       934.5649 E_coul   =     14005.7434 E_long   =    -19223.7505 
Press    =     -2188.9617 Density  =         0.6977 Lx       =        24.5000 
SHAKE stats (type/ave/delta/count) on step 9400
     1   1.00000   1.09697e-06     1029
     1   109.470   9.81754e-05      343
---------------- Step     9400 ----- CPU =     18.1429 (sec) ----------------
TotEng   =     -4157.2116 Temp     =        64.0989 KinEng   =       130.8807 
PotEng   =     -4288.0923 E_bond   =         0.0000 E_angle  =         0.0000 
E_vdwl   =       932.2858 E_coul   =     14003.8671 E_long   =    -19224.2453 
Press    =     -2234.7401 Density  =         0.6977 Lx       =        24.5000 
SHAKE stats (type/ave/delta/count) on step 9500
     1   1.00000   9.06910e-07     1029
     1   109.470   8.33639e-05      343
---------------- Step     9500 ----- CPU =     18.3544 (sec) ----------------
TotEng   =     -4166.8747 Temp     =        65.3016 KinEng   =       133.3365 
PotEng   =     -4300.2112 E_bond   =         0.0000 E_angle  =         0.0000 
E_vdwl   =       959.3109 E_coul   =     13962.6145 E_long   =    -19222.1366 
Press    =     -1820.0212 Density  =         0.6977 Lx       =        24.5000 
SHAKE stats (type/ave/delta/count) on step 9600
     1   1.00000   9.80248e-07     1029
     1   109.470   7.75382e-05      343
---------------- Step     9600 ----- CPU =     18.5655 (sec) ----------------
TotEng   =     -4166.8745 Temp     =        64.6589 KinEng   =       132.0242 
PotEng   =     -4298.8987 E_bond   =         0.0000 E_angle  =         0.0000 
E_vdwl   =       944.8878 E_coul   =     13979.7012 E_long   =    -19223.4877 
Press    =     -2035.6196 Density  =         0.6977 Lx       =        24.5000 
SHAKE stats (type/ave/delta/count) on step 9700
     1   1.00000   9.17352e-07     1029
     1   109.470   9.24960e-05      343
---------------- Step     9700 ----- CPU =     18.7602 (sec) ----------------
TotEng   =     -4158.6718 Temp     =        67.2655 KinEng   =       137.3463 
PotEng   =     -4296.0181 E_bond   =         0.0000 E_angle  =         0.0000 
E_vdwl   =       916.5363 E_coul   =     14012.5751 E_long   =    -19225.1295 
Press    =     -2496.0320 Density  =         0.6977 Lx       =        24.5000 
SHAKE stats (type/ave/delta/count) on step 9800
     1   1.00000   8.33120e-07     1029
     1   109.470   8.77228e-05      343
---------------- Step     9800 ----- CPU =     18.9658 (sec) ----------------
TotEng   =     -4152.6298 Temp     =        67.1564 KinEng   =       137.1236 
PotEng   =     -4289.7533 E_bond   =         0.0000 E_angle  =         0.0000 
E_vdwl   =       929.3044 E_coul   =     14004.7127 E_long   =    -19223.7704 
Press    =     -2281.8903 Density  =         0.6977 Lx       =        24.5000 
SHAKE stats (type/ave/delta/count) on step 9900
     1   1.00000   8.43348e-07     1029
     1   109.470   8.30205e-05      343
---------------- Step     9900 ----- CPU =     19.1552 (sec) ----------------
TotEng   =     -4149.1144 Temp     =        65.6213 KinEng   =       133.9891 
PotEng   =     -4283.1036 E_bond   =         0.0000 E_angle  =         0.0000 
E_vdwl   =       973.0860 E_coul   =     13966.4504 E_long   =    -19222.6399 
Press    =     -1626.5005 Density  =         0.6977 Lx       =        24.5000 
SHAKE stats (type/ave/delta/count) on step 10000
     1   1.00000   8.65097e-07     1029
     1   109.470   8.53422e-05      343
---------------- Step    10000 ----- CPU =     19.3570 (sec) ----------------
TotEng   =     -4144.5381 Temp     =        67.5446 KinEng   =       137.9162 
PotEng   =     -4282.4543 E_bond   =         0.0000 E_angle  =         0.0000 
E_vdwl   =       929.6701 E_coul   =     14011.3857 E_long   =    -19223.5102 
Press    =     -2257.9526 Density  =         0.6977 Lx       =        24.5000 
SHAKE stats (type/ave/delta/count) on step 10100
     1   1.00000   8.68121e-07     1029
     1   109.470   8.44565e-05      343
---------------- Step    10100 ----- CPU =     19.5651 (sec) ----------------
TotEng   =     -4141.1233 Temp     =        70.1735 KinEng   =       143.2841 
PotEng   =     -4284.4075 E_bond   =         0.0000 E_angle  =         0.0000 
E_vdwl   =       933.8755 E_coul   =     14004.9082 E_long   =    -19223.1911 
Press    =     -2116.1657 Density  =         0.6977 Lx       =        24.5000 
SHAKE stats (type/ave/delta/count) on step 10200
     1   1.00000   9.53958e-07     1029
     1   109.470   8.44122e-05      343
---------------- Step    10200 ----- CPU =     19.7628 (sec) ----------------
TotEng   =     -4139.4564 Temp     =        70.0346 KinEng   =       143.0006 
PotEng   =     -4282.4570 E_bond   =         0.0000 E_angle  =         0.0000 
E_vdwl   =       935.7523 E_coul   =     14006.9819 E_long   =    -19225.1912 
Press    =     -2127.2154 Density  =         0.6977 Lx       =        24.5000 
SHAKE stats (type/ave/delta/count) on step 10300
     1   1.00000   1.06434e-06     1029
     1   109.470   7.96753e-05      343
---------------- Step    10300 ----- CPU =     19.9483 (sec) ----------------
TotEng   =     -4138.5462 Temp     =        69.9196 KinEng   =       142.7656 
PotEng   =     -4281.3118 E_bond   =         0.0000 E_angle  =         0.0000 
E_vdwl   =       924.2639 E_coul   =     14017.7512 E_long   =    -19223.3269 
Press    =     -2292.7417 Density  =         0.6977 Lx       =        24.5000 
SHAKE stats (type/ave/delta/count) on step 10400
     1   1.00000   9.31828e-07     1029
     1   109.470   8.74678e-05      343
---------------- Step    10400 ----- CPU =     20.1619 (sec) ----------------
TotEng   =     -4142.3596 Temp     =        70.9091 KinEng   =       144.7860 
PotEng   =     -4287.1457 E_bond   =         0.0000 E_angle  =         0.0000 
E_vdwl   =       924.8499 E_coul   =     14011.9203 E_long   =    -19223.9158 
Press    =     -2290.8102 Density  =         0.6977 Lx       =        24.5000 
SHAKE stats (type/ave/delta/count) on step 10500
     1   1.00000   9.81180e-07     1029
     1   109.470   7.92254e-05      343
---------------- Step    10500 ----- CPU =     20.3639 (sec) ----------------
TotEng   =     -4148.6571 Temp     =        67.6131 KinEng   =       138.0562 
PotEng   =     -4286.7133 E_bond   =         0.0000 E_angle  =         0.0000 
E_vdwl   =       941.5327 E_coul   =     13993.7923 E_long   =    -19222.0383 
Press    =     -2069.7117 Density  =         0.6977 Lx       =        24.5000 
SHAKE stats (type/ave/delta/count) on step 10600
     1   1.00000   1.07303e-06     1029
     1   109.470   8.72510e-05      343
---------------- Step    10600 ----- CPU =     20.5558 (sec) ----------------
TotEng   =     -4144.5115 Temp     =        69.3346 KinEng   =       141.5712 
PotEng   =     -4286.0827 E_bond   =         0.0000 E_angle  =         0.0000 
E_vdwl   =       924.5427 E_coul   =     14012.7182 E_long   =    -19223.3436 
Press    =     -2283.5792 Density  =         0.6977 Lx       =        24.5000 
SHAKE stats (type/ave/delta/count) on step 10700
     1   1.00000   9.85573e-07     1029
     1   109.470   8.14003e-05      343
---------------- Step    10700 ----- CPU =     20.7604 (sec) ----------------
TotEng   =     -4133.6097 Temp     =        74.3365 KinEng   =       151.7843 
PotEng   =     -4285.3940 E_bond   =         0.0000 E_angle  =         0.0000 
E_vdwl   =       935.0362 E_coul   =     14003.7839 E_long   =    -19224.2141 
Press    =     -2138.5244 Density  =         0.6977 Lx       =        24.5000 
SHAKE stats (type/ave/delta/count) on step 10800
     1   1.00000   9.46344e-07     1029
     1   109.470   9.01275e-05      343
---------------- Step    10800 ----- CPU =     20.9561 (sec) ----------------
TotEng   =     -4135.5737 Temp     =        70.0567 KinEng   =       143.0456 
PotEng   =     -4278.6194 E_bond   =         0.0000 E_angle  =         0.0000 
E_vdwl   =       960.6518 E_coul   =     13985.1181 E_long   =    -19224.3893 
Press    =     -1696.9249 Density  =         0.6977 Lx       =        24.5000 
SHAKE stats (type/ave/delta/count) on step 10900
     1   1.00000   8.91323e-07     1029
     1   109.470   8.02363e-05      343
---------------- Step    10900 ----- CPU =     21.1503 (sec) ----------------
TotEng   =     -4139.8552 Temp     =        72.4793 KinEng   =       147.9923 
PotEng   =     -4287.8475 E_bond   =         0.0000 E_angle  =         0.0000 
E_vdwl   =       950.0920 E_coul   =     13986.6463 E_long   =    -19224.5858 
Press    =     -1889.7327 Density  =         0.6977 Lx       =        24.5000 
SHAKE stats (type/ave/delta/count) on step 11000
     1   1.00000   9.43788e-07     1029
     1   109.470   8.24318e-05      343
---------------- Step    11000 ----- CPU =     21.3456 (sec) ----------------
TotEng   =     -4141.6999 Temp     =        72.0034 KinEng   =       147.0205 
PotEng   =     -4288.7204 E_bond   =         0.0000 E_angle  =         0.0000 
E_vdwl   =       941.8093 E_coul   =     13994.0293 E_long   =    -19224.5590 
Press    =     -2074.8934 Density  =         0.6977 Lx       =        24.5000 
SHAKE stats (type/ave/delta/count) on step 11100
     1   1.00000   9.68690e-07     1029
     1   109.470   9.33164e-05      343
---------------- Step    11100 ----- CPU =     21.5750 (sec) ----------------
TotEng   =     -4133.2488 Temp     =        74.8052 KinEng   =       152.7414 
PotEng   =     -4285.9903 E_bond   =         0.0000 E_angle  =         0.0000 
E_vdwl   =       956.9994 E_coul   =     13980.4360 E_long   =    -19223.4256 
Press    =     -1821.6549 Density  =         0.6977 Lx       =        24.5000 
SHAKE stats (type/ave/delta/count) on step 11200
     1   1.00000   9.45465e-07     1029
     1   109.470   8.15184e-05      343
---------------- Step    11200 ----- CPU =     21.8000 (sec) ----------------
TotEng   =     -4124.9095 Temp     =        75.1245 KinEng   =       153.3933 
PotEng   =     -4278.3027 E_bond   =         0.0000 E_angle  =         0.0000 
E_vdwl   =       909.5680 E_coul   =     14034.3858 E_long   =    -19222.2565 
Press    =     -2470.0106 Density  =         0.6977 Lx       =        24.5000 
SHAKE stats (type/ave/delta/count) on step 11300
     1   1.00000   9.71602e-07     1029
     1   109.470   8.31517e-05      343
---------------- Step    11300 ----- CPU =     22.0043 (sec) ----------------
TotEng   =     -4122.1539 Temp     =        73.5161 KinEng   =       150.1091 
PotEng   =     -4272.2631 E_bond   =         0.0000 E_angle  =         0.0000 
E_vdwl   =       945.7836 E_coul   =     14005.1318 E_long   =    -19223.1784 
Press    =     -1919.8212 Density  =         0.6977 Lx       =        24.5000 
SHAKE stats (type/ave/delta/count) on step 11400
     1   1.00000   9.75083e-07     1029
     1   109.470   8.27406e-05      343
---------------- Step    11400 ----- CPU =     22.2131 (sec) ----------------
TotEng   =     -4114.8501 Temp     =        78.9209 KinEng   =       161.1449 
PotEng   =     -4275.9951 E_bond   =         0.0000 E_angle  =         0.0000 
E_vdwl   =       935.4402 E_coul   =     14012.2869 E_long   =    -19223.7221 
Press    =     -2058.2342 Density  =         0.6977 Lx       =        24.5000 
SHAKE stats (type/ave/delta/count) on step 11500
     1   1.00000   9.47791e-07     1029
     1   109.470   7.64497e-05      343
---------------- Step    11500 ----- CPU =     22.4305 (sec) ----------------
TotEng   =     -4106.7176 Temp     =        79.7712 KinEng   =       162.8812 
PotEng   =     -4269.5988 E_bond   =         0.0000 E_angle  =         0.0000 
E_vdwl   =       944.9312 E_coul   =     14009.5444 E_long   =    -19224.0745 
Press    =     -1853.7261 Density  =         0.6977 Lx       =        24.5000 
SHAKE stats (type/ave/delta/count) on step 11600
     1   1.00000   1.27090e-06     1029
     1   109.470   8.80759e-05      343
---------------- Step    11600 ----- CPU =     22.6269 (sec) ----------------
TotEng   =     -4109.1026 Temp     =        81.6178 KinEng   =       166.6518 
PotEng   =     -4275.7544 E_bond   =         0.0000 E_angle  =         0.0000 
E_vdwl   =       941.5374 E_coul   =     14006.9596 E_long   =    -19224.2514 
Press    =     -1955.0579 Density  =         0.6977 Lx       =        24.5000 
SHAKE stats (type/ave/delta/count) on step 11700
     1   1.00000   1.00345e-06     1029
     1   109.470   9.20914e-05      343
---------------- Step    11700 ----- CPU =     22.8322 (sec) ----------------
TotEng   =     -4121.6344 Temp     =        76.0062 KinEng   =       155.1936 
PotEng   =     -4276.8280 E_bond   =         0.0000 E_angle  =         0.0000 
E_vdwl   =       938.6648 E_coul   =     14008.2503 E_long   =    -19223.7431 
Press    =     -2056.5541 Density  =         0.6977 Lx       =        24.5000 
SHAKE stats (type/ave/delta/count) on step 11800
     1   1.00000   8.89350e-07     1029
     1   109.470   8.02127e-05      343
---------------- Step    11800 ----- CPU =     23.0439 (sec) ----------------
TotEng   =     -4125.9755 Temp     =        75.7216 KinEng   =       154.6126 
PotEng   =     -4280.5880 E_bond   =         0.0000 E_angle  =         0.0000 
E_vdwl   =       948.3073 E_coul   =     13993.5166 E_long   =    -19222.4120 
Press    =     -1923.5430 Density  =         0.6977 Lx       =        24.5000 
SHAKE stats (type/ave/delta/count) on step 11900
     1   1.00000   1.00655e-06     1029
     1   109.470   9.48516e-05      343
---------------- Step    11900 ----- CPU =     23.2452 (sec) ----------------
TotEng   =     -4121.9196 Temp     =        76.1447 KinEng   =       155.4765 
PotEng   =     -4277.3961 E_bond   =         0.0000 E_angle  =         0.0000 
E_vdwl   =       920.5636 E_coul   =     14025.8403 E_long   =    -19223.8000 
Press    =     -2237.7436 Density  =         0.6977 Lx       =        24.5000 
SHAKE stats (type/ave/delta/count) on step 12000
     1   1.00000   8.71054e-07     1029
     1   109.470   8.74158e-05      343
---------------- Step    12000 ----- CPU =     23.4369 (sec) ----------------
TotEng   =     -4110.4578 Temp     =        81.0760 KinEng   =       165.5454 
PotEng   =     -4276.0032 E_bond   =         0.0000 E_angle  =         0.0000 
E_vdwl   =       951.5229 E_coul   =     13995.8223 E_long   =    -19223.3484 
Press    =     -1801.9381 Density  =         0.6977 Lx       =        24.5000 
SHAKE stats (type/ave/delta/count) on step 12100
     1   1.00000   8.83358e-07     1029
     1   109.470   8.11207e-05      343
---------------- Step    12100 ----- CPU =     23.6396 (sec) ----------------
TotEng   =     -4108.7361 Temp     =        80.0564 KinEng   =       163.4635 
PotEng   =     -4272.1996 E_bond   =         0.0000 E_angle  =         0.0000 
E_vdwl   =       964.5900 E_coul   =     13986.3749 E_long   =    -19223.1645 
Press    =     -1604.3666 Density  =         0.6977 Lx       =        24.5000 
SHAKE stats (type/ave/delta/count) on step 12200
     1   1.00000   8.92630e-07     1029
     1   109.470   8.24324e-05      343
---------------- Step    12200 ----- CPU =     23.8211 (sec) ----------------
TotEng   =     -4107.2955 Temp     =        78.4833 KinEng   =       160.2515 
PotEng   =     -4267.5470 E_bond   =         0.0000 E_angle  =         0.0000 
E_vdwl   =       938.3554 E_coul   =     14016.1549 E_long   =    -19222.0573 
Press    =     -1938.0488 Density  =         0.6977 Lx       =        24.5000 
SHAKE stats (type/ave/delta/count) on step 12300
     1   1.00000   9.04149e-07     1029
     1   109.470   8.49512e-05      343
---------------- Step    12300 ----- CPU =     24.0450 (sec) ----------------
TotEng   =     -4097.8563 Temp     =        82.4998 KinEng   =       168.4526 
PotEng   =     -4266.3089 E_bond   =         0.0000 E_angle  =         0.0000 
E_vdwl   =       936.6728 E_coul   =     14020.8728 E_long   =    -19223.8545 
Press    =     -1941.3086 Density  =         0.6977 Lx       =        24.5000 
SHAKE stats (type/ave/delta/count) on step 12400
     1   1.00000   8.49972e-07     1029
     1   109.470   7.97630e-05      343
---------------- Step    12400 ----- CPU =     24.2733 (sec) ----------------
TotEng   =     -4088.4843 Temp     =        83.5230 KinEng   =       170.5418 
PotEng   =     -4259.0261 E_bond   =         0.0000 E_angle  =         0.0000 
E_vdwl   =       934.5884 E_coul   =     14030.5361 E_long   =    -19224.1506 
Press    =     -1982.8064 Density  =         0.6977 Lx       =        24.5000 
SHAKE stats (type/ave/delta/count) on step 12500
     1   1.00000   1.04599e-06     1029
     1   109.470   8.74215e-05      343
---------------- Step    12500 ----- CPU =     24.4825 (sec) ----------------
TotEng   =     -4091.6790 Temp     =        85.4787 KinEng   =       174.5350 
PotEng   =     -4266.2140 E_bond   =         0.0000 E_angle  =         0.0000 
E_vdwl   =       955.0280 E_coul   =     14001.2795 E_long   =    -19222.5215 
Press    =     -1681.8061 Density  =         0.6977 Lx       =        24.5000 
SHAKE stats (type/ave/delta/count) on step 12600
     1   1.00000   1.00060e-06     1029
     1   109.470   8.49682e-05      343
---------------- Step    12600 ----- CPU =     24.6732 (sec) ----------------
TotEng   =     -4099.1513 Temp     =        84.4438 KinEng   =       172.4220 
PotEng   =     -4271.5733 E_bond   =         0.0000 E_angle  =         0.0000 
E_vdwl   =       941.0542 E_coul   =     14012.4722 E_long   =    -19225.0996 
Press    =     -1987.8051 Density  =         0.6977 Lx       =        24.5000 
SHAKE stats (type/ave/delta/count) on step 12700
     1   1.00000   1.12158e-06     1029
     1   109.470   7.73516e-05      343
---------------- Step    12700 ----- CPU =     24.8673 (sec) ----------------
TotEng   =     -4102.2195 Temp     =        81.6806 KinEng   =       166.7800 
PotEng   =     -4268.9995 E_bond   =         0.0000 E_angle  =         0.0000 
E_vdwl   =       946.6726 E_coul   =     14007.7451 E_long   =    -19223.4172 
Press    =     -1882.9094 Density  =         0.6977 Lx       =        24.5000 
SHAKE stats (type/ave/delta/count) on step 12800
     1   1.00000   9.95711e-07     1029
     1   109.470   8.57202e-05      343
---------------- Step    12800 ----- CPU =     25.0846 (sec) ----------------
TotEng   =     -4099.1126 Temp     =        83.0614 KinEng   =       169.5993 
PotEng   =     -4268.7119 E_bond   =         0.0000 E_angle  =         0.0000 
E_vdwl   =       929.6781 E_coul   =     14024.8003 E_long   =    -19223.1903 
Press    =     -2136.3637 Density  =         0.6977 Lx       =        24.5000 
SHAKE stats (type/ave/delta/count) on step 12900
     1   1.00000   9.38687e-07     1029
     1   109.470   9.33036e-05      343
---------------- Step    12900 ----- CPU =     25.2869 (sec) ----------------
TotEng   =     -4085.5862 Temp     =        83.9883 KinEng   =       171.4920 
PotEng   =     -4257.0782 E_bond   =         0.0000 E_angle  =         0.0000 
E_vdwl   =       937.9129 E_coul   =     14029.2286 E_long   =    -19224.2196 
Press    =     -1915.3343 Density  =         0.6977 Lx       =        24.5000 
SHAKE stats (type/ave/delta/count) on step 13000
     1   1.00000   8.40361e-07     1029
     1   109.470   8.18703e-05      343
---------------- Step    13000 ----- CPU =     25.4928 (sec) ----------------
TotEng   =     -4081.0657 Temp     =        87.8266 KinEng   =       179.3292 
PotEng   =     -4260.3949 E_bond   =         0.0000 E_angle  =         0.0000 
E_vdwl   =       936.7763 E_coul   =     14025.9048 E_long   =    -19223.0760 
Press    =     -1972.0261 Density  =         0.6977 Lx       =        24.5000 
SHAKE stats (type/ave/delta/count) on step 13100
     1   1.00000   1.12070e-06     1029
     1   109.470   9.20380e-05      343
---------------- Step    13100 ----- CPU =     25.6919 (sec) ----------------
TotEng   =     -4085.1409 Temp     =        89.7443 KinEng   =       183.2449 
PotEng   =     -4268.3858 E_bond   =         0.0000 E_angle  =         0.0000 
E_vdwl   =       935.4076 E_coul   =     14019.7820 E_long   =    -19223.5753 
Press    =     -1924.2221 Density  =         0.6977 Lx       =        24.5000 
SHAKE stats (type/ave/delta/count) on step 13200
     1   1.00000   9.14611e-07     1029
     1   109.470   7.82867e-05      343
---------------- Step    13200 ----- CPU =     25.8890 (sec) ----------------
TotEng   =     -4090.8944 Temp     =        82.0376 KinEng   =       167.5089 
PotEng   =     -4258.4033 E_bond   =         0.0000 E_angle  =         0.0000 
E_vdwl   =       925.0975 E_coul   =     14039.3286 E_long   =    -19222.8294 
Press    =     -2114.4466 Density  =         0.6977 Lx       =        24.5000 
SHAKE stats (type/ave/delta/count) on step 13300
     1   1.00000   1.03636e-06     1029
     1   109.470   8.86035e-05      343
---------------- Step    13300 ----- CPU =     26.0704 (sec) ----------------
TotEng   =     -4085.3644 Temp     =        91.1727 KinEng   =       186.1615 
PotEng   =     -4271.5258 E_bond   =         0.0000 E_angle  =         0.0000 
E_vdwl   =       945.1227 E_coul   =     14007.4202 E_long   =    -19224.0686 
Press    =     -1769.0684 Density  =         0.6977 Lx       =        24.5000 
SHAKE stats (type/ave/delta/count) on step 13400
     1   1.00000   1.05081e-06     1029
     1   109.470   8.45828e-05      343
---------------- Step    13400 ----- CPU =     26.2620 (sec) ----------------
TotEng   =     -4086.6294 Temp     =        83.4061 KinEng   =       170.3032 
PotEng   =     -4256.9326 E_bond   =         0.0000 E_angle  =         0.0000 
E_vdwl   =       953.5138 E_coul   =     14013.9015 E_long   =    -19224.3478 
Press    =     -1619.6030 Density  =         0.6977 Lx       =        24.5000 
SHAKE stats (type/ave/delta/count) on step 13500
     1   1.00000   8.74671e-07     1029
     1   109.470   8.24102e-05      343
---------------- Step    13500 ----- CPU =     26.4745 (sec) ----------------
TotEng   =     -4086.2436 Temp     =        88.6837 KinEng   =       181.0792 
PotEng   =     -4267.3228 E_bond   =         0.0000 E_angle  =         0.0000 
E_vdwl   =       924.8822 E_coul   =     14031.6210 E_long   =    -19223.8259 
Press    =     -2113.3265 Density  =         0.6977 Lx       =        24.5000 
SHAKE stats (type/ave/delta/count) on step 13600
     1   1.00000   8.81595e-07     1029
     1   109.470   7.92928e-05      343
---------------- Step    13600 ----- CPU =     26.6894 (sec) ----------------
TotEng   =     -4080.7773 Temp     =        86.8703 KinEng   =       177.3766 
PotEng   =     -4258.1538 E_bond   =         0.0000 E_angle  =         0.0000 
E_vdwl   =       956.5357 E_coul   =     14009.7302 E_long   =    -19224.4198 
Press    =     -1613.2870 Density  =         0.6977 Lx       =        24.5000 
SHAKE stats (type/ave/delta/count) on step 13700
     1   1.00000   8.98030e-07     1029
     1   109.470   8.22441e-05      343
---------------- Step    13700 ----- CPU =     26.8790 (sec) ----------------
TotEng   =     -4075.2434 Temp     =        94.6372 KinEng   =       193.2354 
PotEng   =     -4268.4787 E_bond   =         0.0000 E_angle  =         0.0000 
E_vdwl   =       950.8073 E_coul   =     14002.6543 E_long   =    -19221.9403 
Press    =     -1797.9590 Density  =         0.6977 Lx       =        24.5000 
SHAKE stats (type/ave/delta/count) on step 13800
     1   1.00000   9.86574e-07     1029
     1   109.470   8.30152e-05      343
---------------- Step    13800 ----- CPU =     27.1012 (sec) ----------------
TotEng   =     -4073.1058 Temp     =        92.1652 KinEng   =       188.1879 
PotEng   =     -4261.2937 E_bond   =         0.0000 E_angle  =         0.0000 
E_vdwl   =       927.4070 E_coul   =     14035.1339 E_long   =    -19223.8346 
Press    =     -2125.1821 Density  =         0.6977 Lx       =        24.5000 
SHAKE stats (type/ave/delta/count) on step 13900
     1   1.00000   1.02723e-06     1029
     1   109.470   7.93514e-05      343
---------------- Step    13900 ----- CPU =     27.3081 (sec) ----------------
TotEng   =     -4073.1325 Temp     =        87.4189 KinEng   =       178.4967 
PotEng   =     -4251.6292 E_bond   =         0.0000 E_angle  =         0.0000 
E_vdwl   =       929.1929 E_coul   =     14043.5051 E_long   =    -19224.3272 
Press    =     -2017.8313 Density  =         0.6977 Lx       =        24.5000 
SHAKE stats (type/ave/delta/count) on step 14000
     1   1.00000   1.01863e-06     1029
     1   109.470   8.09593e-05      343
---------------- Step    14000 ----- CPU =     27.5175 (sec) ----------------
TotEng   =     -4064.5117 Temp     =        94.1309 KinEng   =       192.2016 
PotEng   =     -4256.7133 E_bond   =         0.0000 E_angle  =         0.0000 
E_vdwl   =       958.9716 E_coul   =     14010.8724 E_long   =    -19226.5574 
Press    =     -1639.5187 Density  =         0.6977 Lx       =        24.5000 
SHAKE stats (type/ave/delta/count) on step 14100
     1   1.00000   1.05293e-06     1029
     1   109.470   9.91330e-05      343
---------------- Step    14100 ----- CPU =     27.7393 (sec) ----------------
TotEng   =     -4067.3635 Temp     =        96.5326 KinEng   =       197.1056 
PotEng   =     -4264.4691 E_bond   =         0.0000 E_angle  =         0.0000 
E_vdwl   =       954.3144 E_coul   =     14005.0003 E_long   =    -19223.7837 
Press    =     -1605.3998 Density  =         0.6977 Lx       =        24.5000 
SHAKE stats (type/ave/delta/count) on step 14200
     1   1.00000   1.10188e-06     1029
     1   109.470   8.87503e-05      343
---------------- Step    14200 ----- CPU =     27.9537 (sec) ----------------
TotEng   =     -4079.7349 Temp     =        89.4187 KinEng   =       182.5800 
PotEng   =     -4262.3149 E_bond   =         0.0000 E_angle  =         0.0000 
E_vdwl   =       967.4683 E_coul   =     13992.7136 E_long   =    -19222.4967 
Press    =     -1473.6192 Density  =         0.6977 Lx       =        24.5000 
SHAKE stats (type/ave/delta/count) on step 14300
     1   1.00000   9.66329e-07     1029
     1   109.470   8.14067e-05      343
---------------- Step    14300 ----- CPU =     28.1514 (sec) ----------------
TotEng   =     -4085.2914 Temp     =        92.8204 KinEng   =       189.5258 
PotEng   =     -4274.8172 E_bond   =         0.0000 E_angle  =         0.0000 
E_vdwl   =       940.3092 E_coul   =     14008.8091 E_long   =    -19223.9355 
Press    =     -1973.9386 Density  =         0.6977 Lx       =        24.5000 
SHAKE stats (type/ave/delta/count) on step 14400
     1   1.00000   1.00184e-06     1029
     1   109.470   8.67757e-05      343
---------------- Step    14400 ----- CPU =     28.3545 (sec) ----------------
TotEng   =     -4079.7559 Temp     =        89.7142 KinEng   =       183.1833 
PotEng   =     -4262.9392 E_bond   =         0.0000 E_angle  =         0.0000 
E_vdwl   =       949.7919 E_coul   =     14012.2120 E_long   =    -19224.9431 
Press    =     -1726.7183 Density  =         0.6977 Lx       =        24.5000 
SHAKE stats (type/ave/delta/count) on step 14500
     1   1.00000   9.36051e-07     1029
     1   109.470   7.84674e-05      343
---------------- Step    14500 ----- CPU =     28.5498 (sec) ----------------
TotEng   =     -4071.4528 Temp     =        90.6352 KinEng   =       185.0638 
PotEng   =     -4256.5166 E_bond   =         0.0000 E_angle  =         0.0000 
E_vdwl   =       929.4216 E_coul   =     14038.5670 E_long   =    -19224.5053 
Press    =     -2062.8688 Density  =         0.6977 Lx       =        24.5000 
SHAKE stats (type/ave/delta/count) on step 14600
     1   1.00000   1.05293e-06     1029
     1   109.470   8.96874e-05      343
---------------- Step    14600 ----- CPU =     28.7389 (sec) ----------------
TotEng   =     -4063.9917 Temp     =        90.3858 KinEng   =       184.5548 
PotEng   =     -4248.5465 E_bond   =         0.0000 E_angle  =         0.0000 
E_vdwl   =       950.3032 E_coul   =     14025.3296 E_long   =    -19224.1794 
Press    =     -1727.1897 Density  =         0.6977 Lx       =        24.5000 
SHAKE stats (type/ave/delta/count) on step 14700
     1   1.00000   1.15992e-06     1029
     1   109.470   8.75259e-05      343
---------------- Step    14700 ----- CPU =     28.9265 (sec) ----------------
TotEng   =     -4051.1791 Temp     =        97.2601 KinEng   =       198.5911 
PotEng   =     -4249.7701 E_bond   =         0.0000 E_angle  =         0.0000 
E_vdwl   =       941.5946 E_coul   =     14034.8760 E_long   =    -19226.2408 
Press    =     -1834.4263 Density  =         0.6977 Lx       =        24.5000 
SHAKE stats (type/ave/delta/count) on step 14800
     1   1.00000   1.08034e-06     1029
     1   109.470   8.14944e-05      343
---------------- Step    14800 ----- CPU =     29.1171 (sec) ----------------
TotEng   =     -4049.3163 Temp     =        99.1383 KinEng   =       202.4259 
PotEng   =     -4251.7423 E_bond   =         0.0000 E_angle  =         0.0000 
E_vdwl   =       918.9577 E_coul   =     14054.5279 E_long   =    -19225.2278 
Press    =     -2126.5006 Density  =         0.6977 Lx       =        24.5000 
SHAKE stats (type/ave/delta/count) on step 14900
     1   1.00000   1.14039e-06     1029
     1   109.470   8.75413e-05      343
[...]
SHAKE stats (type/ave/delta/count) on step 246600
     1   0.999975  1.63822e-06     1029
     1   109.470   0.000117125      343
---------------- Step   246600 ----- CPU =    568.1335 (sec) ----------------
TotEng   =     -3178.3107 Temp     =       302.2467 KinEng   =       617.1438 
PotEng   =     -3795.4545 E_bond   =         0.0000 E_angle  =         0.0000 
E_vdwl   =       728.9145 E_coul   =     14703.1054 E_long   =    -19227.4744 
Press    =      -234.2662 Density  =         0.9930 Lx       =        21.7810 
SHAKE stats (type/ave/delta/count) on step 246700
     1   0.999986  1.54151e-06     1029
     1   109.470   0.000114190      343
---------------- Step   246700 ----- CPU =    568.4350 (sec) ----------------
TotEng   =     -3121.8502 Temp     =       318.5745 KinEng   =       650.4829 
PotEng   =     -3772.3331 E_bond   =         0.0000 E_angle  =         0.0000 
E_vdwl   =       743.0214 E_coul   =     14715.6273 E_long   =    -19230.9817 
Press    =       571.7167 Density  =         0.9998 Lx       =        21.7318 
SHAKE stats (type/ave/delta/count) on step 246800
     1   0.999997  1.36606e-06     1029
     1   109.470   0.000119140      343
---------------- Step   246800 ----- CPU =    568.7229 (sec) ----------------
TotEng   =     -3123.7863 Temp     =       308.7343 KinEng   =       630.3906 
PotEng   =     -3754.1769 E_bond   =         0.0000 E_angle  =         0.0000 
E_vdwl   =       736.4227 E_coul   =     14739.9883 E_long   =    -19230.5880 
Press    =       622.2200 Density  =         1.0021 Lx       =        21.7152 
SHAKE stats (type/ave/delta/count) on step 246900
     1   1.00001   1.53292e-06     1029
     1   109.470   0.000154704      343
---------------- Step   246900 ----- CPU =    569.0235 (sec) ----------------
TotEng   =     -3152.4677 Temp     =       309.5063 KinEng   =       631.9670 
PotEng   =     -3784.4346 E_bond   =         0.0000 E_angle  =         0.0000 
E_vdwl   =       735.7428 E_coul   =     14709.8853 E_long   =    -19230.0627 
Press    =       212.5788 Density  =         1.0009 Lx       =        21.7234 
SHAKE stats (type/ave/delta/count) on step 247000
     1   0.999993  1.38035e-06     1029
     1   109.470   0.000105639      343
---------------- Step   247000 ----- CPU =    569.2988 (sec) ----------------
TotEng   =     -3172.2447 Temp     =       292.8320 KinEng   =       597.9204 
PotEng   =     -3770.1651 E_bond   =         0.0000 E_angle  =         0.0000 
E_vdwl   =       680.2429 E_coul   =     14777.7492 E_long   =    -19228.1573 
Press    =      -720.7242 Density  =         1.0000 Lx       =        21.7305 
SHAKE stats (type/ave/delta/count) on step 247100
     1   0.999980  1.19759e-06     1029
     1   109.470   9.55194e-05      343
---------------- Step   247100 ----- CPU =    569.5959 (sec) ----------------
TotEng   =     -3168.2382 Temp     =       295.8945 KinEng   =       604.1736 
PotEng   =     -3772.4118 E_bond   =         0.0000 E_angle  =         0.0000 
E_vdwl   =       692.4844 E_coul   =     14762.1736 E_long   =    -19227.0698 
Press    =      -611.6488 Density  =         1.0042 Lx       =        21.6997 
SHAKE stats (type/ave/delta/count) on step 247200
     1   0.999982  1.13975e-06     1029
     1   109.470   0.000114687      343
---------------- Step   247200 ----- CPU =    569.9084 (sec) ----------------
TotEng   =     -3152.6046 Temp     =       306.1613 KinEng   =       625.1369 
PotEng   =     -3777.7415 E_bond   =         0.0000 E_angle  =         0.0000 
E_vdwl   =       710.0737 E_coul   =     14744.2900 E_long   =    -19232.1052 
Press    =       -84.8072 Density  =         1.0108 Lx       =        21.6522 
SHAKE stats (type/ave/delta/count) on step 247300
     1   0.999982  1.72612e-06     1029
     1   109.470   0.000138688      343
---------------- Step   247300 ----- CPU =    570.2293 (sec) ----------------
TotEng   =     -3114.1546 Temp     =       306.2171 KinEng   =       625.2509 
PotEng   =     -3739.4055 E_bond   =         0.0000 E_angle  =         0.0000 
E_vdwl   =       732.3750 E_coul   =     14758.2642 E_long   =    -19230.0447 
Press    =       817.5803 Density  =         1.0168 Lx       =        21.6099 
SHAKE stats (type/ave/delta/count) on step 247400
     1   1.00001   1.52129e-06     1029
     1   109.470   0.000116636      343
---------------- Step   247400 ----- CPU =    570.5584 (sec) ----------------
TotEng   =     -3090.2750 Temp     =       311.8168 KinEng   =       636.6847 
PotEng   =     -3726.9597 E_bond   =         0.0000 E_angle  =         0.0000 
E_vdwl   =       760.2357 E_coul   =     14742.9387 E_long   =    -19230.1341 
Press    =      1584.3299 Density  =         1.0191 Lx       =        21.5937 
SHAKE stats (type/ave/delta/count) on step 247500
     1   1.00003   1.96014e-06     1029
     1   109.470   0.000125329      343
---------------- Step   247500 ----- CPU =    570.8748 (sec) ----------------
TotEng   =     -3128.9920 Temp     =       304.8501 KinEng   =       622.4598 
PotEng   =     -3751.4518 E_bond   =         0.0000 E_angle  =         0.0000 
E_vdwl   =       696.2746 E_coul   =     14782.4282 E_long   =    -19230.1546 
Press    =      -161.6077 Density  =         1.0127 Lx       =        21.6391 
SHAKE stats (type/ave/delta/count) on step 247600
     1   1.00003   1.34519e-06     1029
     1   109.470   0.000115773      343
---------------- Step   247600 ----- CPU =    571.1891 (sec) ----------------
TotEng   =     -3151.2639 Temp     =       302.1258 KinEng   =       616.8970 
PotEng   =     -3768.1609 E_bond   =         0.0000 E_angle  =         0.0000 
E_vdwl   =       735.2194 E_coul   =     14727.8398 E_long   =    -19231.2201 
Press    =       522.5562 Density  =         1.0047 Lx       =        21.6958 
SHAKE stats (type/ave/delta/count) on step 247700
     1   1.00003   1.32639e-06     1029
     1   109.470   0.000130250      343
---------------- Step   247700 ----- CPU =    571.4630 (sec) ----------------
TotEng   =     -3173.6622 Temp     =       306.8962 KinEng   =       626.6376 
PotEng   =     -3800.2998 E_bond   =         0.0000 E_angle  =         0.0000 
E_vdwl   =       669.7591 E_coul   =     14760.2704 E_long   =    -19230.3292 
Press    =     -1288.5151 Density  =         0.9957 Lx       =        21.7615 
SHAKE stats (type/ave/delta/count) on step 247800
     1   0.999992  1.01760e-06     1029
     1   109.470   9.26362e-05      343
---------------- Step   247800 ----- CPU =    571.7324 (sec) ----------------
TotEng   =     -3181.9824 Temp     =       294.1797 KinEng   =       600.6722 
PotEng   =     -3782.6545 E_bond   =         0.0000 E_angle  =         0.0000 
E_vdwl   =       722.8370 E_coul   =     14723.5094 E_long   =    -19229.0010 
Press    =      -191.9881 Density  =         0.9940 Lx       =        21.7736 
SHAKE stats (type/ave/delta/count) on step 247900
     1   0.999998  1.40887e-06     1029
     1   109.470   0.000140006      343
---------------- Step   247900 ----- CPU =    572.0148 (sec) ----------------
TotEng   =     -3160.2475 Temp     =       302.6366 KinEng   =       617.9399 
PotEng   =     -3778.1875 E_bond   =         0.0000 E_angle  =         0.0000 
E_vdwl   =       681.5141 E_coul   =     14772.1466 E_long   =    -19231.8482 
Press    =      -931.7384 Density  =         0.9946 Lx       =        21.7696 
SHAKE stats (type/ave/delta/count) on step 248000
     1   0.999998  1.54598e-06     1029
     1   109.470   0.000141479      343
---------------- Step   248000 ----- CPU =    572.2958 (sec) ----------------
TotEng   =     -3105.7560 Temp     =       314.4893 KinEng   =       642.1416 
PotEng   =     -3747.8975 E_bond   =         0.0000 E_angle  =         0.0000 
E_vdwl   =       759.3193 E_coul   =     14722.2481 E_long   =    -19229.4650 
Press    =      1047.5562 Density  =         0.9968 Lx       =        21.7534 
SHAKE stats (type/ave/delta/count) on step 248100
     1   1.00001   1.39017e-06     1029
     1   109.470   0.000122712      343
---------------- Step   248100 ----- CPU =    572.6034 (sec) ----------------
TotEng   =     -3105.2236 Temp     =       312.7258 KinEng   =       638.5407 
PotEng   =     -3743.7643 E_bond   =         0.0000 E_angle  =         0.0000 
E_vdwl   =       693.5271 E_coul   =     14791.5573 E_long   =    -19228.8486 
Press    =      -286.3870 Density  =         0.9943 Lx       =        21.7712 
SHAKE stats (type/ave/delta/count) on step 248200
     1   0.999992  1.53533e-06     1029
     1   109.470   0.000105907      343
---------------- Step   248200 ----- CPU =    572.8781 (sec) ----------------
TotEng   =     -3130.1449 Temp     =       299.1643 KinEng   =       610.8501 
PotEng   =     -3740.9950 E_bond   =         0.0000 E_angle  =         0.0000 
E_vdwl   =       686.2065 E_coul   =     14804.7252 E_long   =    -19231.9268 
Press    =      -635.7114 Density  =         0.9935 Lx       =        21.7773 
SHAKE stats (type/ave/delta/count) on step 248300
     1   0.999984  1.37891e-06     1029
     1   109.470   9.67472e-05      343
---------------- Step   248300 ----- CPU =    573.1522 (sec) ----------------
TotEng   =     -3144.4064 Temp     =       306.8949 KinEng   =       626.6349 
PotEng   =     -3771.0413 E_bond   =         0.0000 E_angle  =         0.0000 
E_vdwl   =       712.0648 E_coul   =     14747.0636 E_long   =    -19230.1696 
Press    =        -7.1608 Density  =         0.9978 Lx       =        21.7460 
SHAKE stats (type/ave/delta/count) on step 248400
     1   0.999995  1.38135e-06     1029
     1   109.470   8.94233e-05      343
---------------- Step   248400 ----- CPU =    573.4587 (sec) ----------------
TotEng   =     -3159.7950 Temp     =       298.0947 KinEng   =       608.6661 
PotEng   =     -3768.4611 E_bond   =         0.0000 E_angle  =         0.0000 
E_vdwl   =       721.0573 E_coul   =     14739.5960 E_long   =    -19229.1144 
Press    =        98.1108 Density  =         1.0009 Lx       =        21.7236 
SHAKE stats (type/ave/delta/count) on step 248500
     1   1.00000   1.44017e-06     1029
     1   109.470   0.000121338      343
---------------- Step   248500 ----- CPU =    573.7934 (sec) ----------------
TotEng   =     -3173.0524 Temp     =       315.3046 KinEng   =       643.8063 
PotEng   =     -3816.8587 E_bond   =         0.0000 E_angle  =         0.0000 
E_vdwl   =       768.4551 E_coul   =     14641.7141 E_long   =    -19227.0279 
Press    =       724.3910 Density  =         1.0022 Lx       =        21.7139 
SHAKE stats (type/ave/delta/count) on step 248600
     1   1.00002   1.39196e-06     1029
     1   109.470   9.79298e-05      343
---------------- Step   248600 ----- CPU =    574.1294 (sec) ----------------
TotEng   =     -3199.3097 Temp     =       310.5671 KinEng   =       634.1330 
PotEng   =     -3833.4428 E_bond   =         0.0000 E_angle  =         0.0000 
E_vdwl   =       799.8376 E_coul   =     14599.3145 E_long   =    -19232.5949 
Press    =      1001.7035 Density  =         1.0000 Lx       =        21.7303 
SHAKE stats (type/ave/delta/count) on step 248700
     1   1.00002   1.13705e-06     1029
     1   109.470   8.34841e-05      343
---------------- Step   248700 ----- CPU =    574.4148 (sec) ----------------
TotEng   =     -3207.1866 Temp     =       290.0190 KinEng   =       592.1767 
PotEng   =     -3799.3633 E_bond   =         0.0000 E_angle  =         0.0000 
E_vdwl   =       725.8667 E_coul   =     14705.8900 E_long   =    -19231.1200 
Press    =      -416.0663 Density  =         0.9927 Lx       =        21.7834 
SHAKE stats (type/ave/delta/count) on step 248800
     1   1.00002   1.40666e-06     1029
     1   109.470   0.000127148      343
---------------- Step   248800 ----- CPU =    574.7000 (sec) ----------------
TotEng   =     -3188.7086 Temp     =       293.5797 KinEng   =       599.4471 
PotEng   =     -3788.1558 E_bond   =         0.0000 E_angle  =         0.0000 
E_vdwl   =       760.5468 E_coul   =     14682.6660 E_long   =    -19231.3685 
Press    =       463.2961 Density  =         0.9878 Lx       =        21.8191 
SHAKE stats (type/ave/delta/count) on step 248900
     1   1.00002   1.37310e-06     1029
     1   109.470   0.000101897      343
---------------- Step   248900 ----- CPU =    574.9664 (sec) ----------------
TotEng   =     -3153.7792 Temp     =       304.4150 KinEng   =       621.5713 
PotEng   =     -3775.3505 E_bond   =         0.0000 E_angle  =         0.0000 
E_vdwl   =       735.1955 E_coul   =     14719.6049 E_long   =    -19230.1510 
Press    =       -86.2048 Density  =         0.9827 Lx       =        21.8568 
SHAKE stats (type/ave/delta/count) on step 249000
     1   1.00001   1.07686e-06     1029
     1   109.470   8.32213e-05      343
---------------- Step   249000 ----- CPU =    575.2502 (sec) ----------------
TotEng   =     -3137.2386 Temp     =       299.0443 KinEng   =       610.6050 
PotEng   =     -3747.8436 E_bond   =         0.0000 E_angle  =         0.0000 
E_vdwl   =       710.8127 E_coul   =     14767.5208 E_long   =    -19226.1771 
Press    =      -443.9586 Density  =         0.9779 Lx       =        21.8929 
SHAKE stats (type/ave/delta/count) on step 249100
     1   0.999994  9.62383e-07     1029
     1   109.470   0.000106061      343
---------------- Step   249100 ----- CPU =    575.5723 (sec) ----------------
TotEng   =     -3133.1632 Temp     =       301.7508 KinEng   =       616.1312 
PotEng   =     -3749.2944 E_bond   =         0.0000 E_angle  =         0.0000 
E_vdwl   =       718.0568 E_coul   =     14761.1643 E_long   =    -19228.5155 
Press    =      -273.4562 Density  =         0.9770 Lx       =        21.8991 
SHAKE stats (type/ave/delta/count) on step 249200
     1   1.00000   2.91538e-06     1029
     1   109.470   0.000220517      343
---------------- Step   249200 ----- CPU =    575.8384 (sec) ----------------
TotEng   =     -3161.7508 Temp     =       309.5686 KinEng   =       632.0942 
PotEng   =     -3793.8450 E_bond   =         0.0000 E_angle  =         0.0000 
E_vdwl   =       726.4442 E_coul   =     14711.0667 E_long   =    -19231.3560 
Press    =      -338.4089 Density  =         0.9775 Lx       =        21.8952 
SHAKE stats (type/ave/delta/count) on step 249300
     1   0.999994  1.46147e-06     1029
     1   109.470   0.000100475      343
---------------- Step   249300 ----- CPU =    576.1322 (sec) ----------------
TotEng   =     -3205.0128 Temp     =       280.0287 KinEng   =       571.7780 
PotEng   =     -3776.7909 E_bond   =         0.0000 E_angle  =         0.0000 
E_vdwl   =       761.4318 E_coul   =     14691.8449 E_long   =    -19230.0676 
Press    =       402.7761 Density  =         0.9777 Lx       =        21.8938 
SHAKE stats (type/ave/delta/count) on step 249400
     1   0.999988  1.01607e-06     1029
     1   109.470   7.89898e-05      343
---------------- Step   249400 ----- CPU =    576.4062 (sec) ----------------
TotEng   =     -3208.1184 Temp     =       298.3446 KinEng   =       609.1763 
PotEng   =     -3817.2947 E_bond   =         0.0000 E_angle  =         0.0000 
E_vdwl   =       776.6211 E_coul   =     14636.8095 E_long   =    -19230.7254 
Press    =       362.8521 Density  =         0.9805 Lx       =        21.8732 
SHAKE stats (type/ave/delta/count) on step 249500
     1   1.00000   1.27657e-06     1029
     1   109.470   0.000101387      343
---------------- Step   249500 ----- CPU =    576.6650 (sec) ----------------
TotEng   =     -3211.6976 Temp     =       301.6379 KinEng   =       615.9008 
PotEng   =     -3827.5984 E_bond   =         0.0000 E_angle  =         0.0000 
E_vdwl   =       804.3547 E_coul   =     14599.0480 E_long   =    -19231.0012 
Press    =       952.0192 Density  =         0.9820 Lx       =        21.8619 
SHAKE stats (type/ave/delta/count) on step 249600
     1   1.00003   1.50759e-06     1029
     1   109.470   0.000129487      343
---------------- Step   249600 ----- CPU =    576.9278 (sec) ----------------
TotEng   =     -3227.0553 Temp     =       301.3355 KinEng   =       615.2834 
PotEng   =     -3842.3388 E_bond   =         0.0000 E_angle  =         0.0000 
E_vdwl   =       773.6072 E_coul   =     14614.1418 E_long   =    -19230.0878 
Press    =       204.8584 Density  =         0.9766 Lx       =        21.9020 
SHAKE stats (type/ave/delta/count) on step 249700
     1   1.00002   1.30150e-06     1029
     1   109.470   9.33235e-05      343
---------------- Step   249700 ----- CPU =    577.2409 (sec) ----------------
TotEng   =     -3244.4858 Temp     =       285.4222 KinEng   =       582.7907 
PotEng   =     -3827.2765 E_bond   =         0.0000 E_angle  =         0.0000 
E_vdwl   =       711.8622 E_coul   =     14692.0220 E_long   =    -19231.1608 
Press    =     -1210.0420 Density  =         0.9679 Lx       =        21.9679 
SHAKE stats (type/ave/delta/count) on step 249800
     1   0.999982  2.17144e-06     1029
     1   109.470   0.000164358      343
---------------- Step   249800 ----- CPU =    577.5680 (sec) ----------------
TotEng   =     -3219.8215 Temp     =       284.9037 KinEng   =       581.7321 
PotEng   =     -3801.5536 E_bond   =         0.0000 E_angle  =         0.0000 
E_vdwl   =       711.7908 E_coul   =     14717.2285 E_long   =    -19230.5729 
Press    =     -1023.4953 Density  =         0.9666 Lx       =        21.9778 
SHAKE stats (type/ave/delta/count) on step 249900
     1   0.999967  1.12767e-06     1029
     1   109.470   0.000110144      343
---------------- Step   249900 ----- CPU =    577.8699 (sec) ----------------
TotEng   =     -3174.6390 Temp     =       292.0047 KinEng   =       596.2312 
PotEng   =     -3770.8703 E_bond   =         0.0000 E_angle  =         0.0000 
E_vdwl   =       746.8144 E_coul   =     14711.9534 E_long   =    -19229.6381 
Press    =        88.9294 Density  =         0.9744 Lx       =        21.9190 
SHAKE stats (type/ave/delta/count) on step 250000
     1   0.999980  9.52885e-07     1029
     1   109.470   8.53098e-05      343
---------------- Step   250000 ----- CPU =    578.1939 (sec) ----------------
TotEng   =     -3161.6559 Temp     =       308.4835 KinEng   =       629.8785 
PotEng   =     -3791.5343 E_bond   =         0.0000 E_angle  =         0.0000 
E_vdwl   =       788.7745 E_coul   =     14649.1377 E_long   =    -19229.4466 
Press    =      1063.5268 Density  =         0.9831 Lx       =        21.8541 
Loop time of 578.194 on 4 procs for 200000 steps with 1029 atoms

Performance: 29.886 ns/day, 0.803 hours/ns, 345.905 timesteps/s
96.2% CPU use with 4 MPI tasks x 1 OpenMP threads

MPI task timing breakdown:
Section |  min time  |  avg time  |  max time  |%varavg| %total
---------------------------------------------------------------
Pair    | 305.25     | 336.14     | 369.94     | 129.6 | 58.14
Bond    | 0.10766    | 0.11366    | 0.12089    |   1.8 |  0.02
Kspace  | 110.28     | 144.03     | 174.92     | 197.9 | 24.91
Neigh   | 25.478     | 25.481     | 25.484     |   0.0 |  4.41
Comm    | 23.104     | 23.858     | 25.799     |  23.0 |  4.13
Output  | 0.19191    | 0.20733    | 0.25293    |   5.8 |  0.04
Modify  | 38.254     | 43.336     | 45.149     |  44.6 |  7.50
Other   |            | 5.029      |            |       |  0.87

Nlocal:        257.250 ave         278 max         241 min
Histogram: 1 1 0 0 0 0 1 0 0 1
Nghost:        5285.25 ave        5343 max        5193 min
Histogram: 1 0 0 0 0 0 1 1 0 1
Neighs:        91536.0 ave      109185 max       82478 min
Histogram: 2 0 1 0 0 0 0 0 0 1

Total # of neighbors = 366144
Ave neighs/atom = 355.82507
Ave special neighs/atom = 2.0000000
Neighbor list builds = 8317
Dangerous builds = 0
System init for write_data ...
PPPM initialization ...
  using 12-bit tables for long-range coulomb (src/kspace.cpp:340)
  G vector (1/distance) = 0.26888919
  grid = 12 12 12
  stencil order = 5
  estimated absolute RMS force accuracy = 0.024266953
  estimated relative force accuracy = 7.3079208e-05
  using double precision FFTW3
  3d grid and FFT values/proc = 3211 432
Total wall time: 0:11:19
