
     Program PHONON v.7.1 starts on 31May2023 at  9:19:13 

     This program is part of the open-source Quantum ESPRESSO suite
     for quantum simulation of materials; please cite
         "P. Giannozzi et al., J. Phys.:Condens. Matter 21 395502 (2009);
         "P. Giannozzi et al., J. Phys.:Condens. Matter 29 465901 (2017);
         "P. Giannozzi et al., J. Chem. Phys. 152 154105 (2020);
          URL http://www.quantum-espresso.org", 
     in publications or presentations arising from this work. More details at
     http://www.quantum-espresso.org/quote

     Parallel version (MPI), running on    24 processors

     MPI processes distributed on     1 nodes
     R & G space division:  proc/nbgrp/npool/nimage =      24
     165047 MiB available memory on the printing compute node when the environment starts
 
     Waiting for input...
     Reading input from standard input
      Title line not specified: using 'default'.

     Reading xml data from directory:

     ./pwscf.save/
     file C.pbe-n-kjpaw_psl.1.0.0.UPF: wavefunction(s)  2S 2P renormalized
     file O.pbe-n-kjpaw_psl.0.1.UPF: wavefunction(s)  2P renormalized

     IMPORTANT: XC functional enforced from input :
     Exchange-correlation= PBE
                           (   1   4   3   4   0   0   0)
     Any further DFT definition will be discarded
     Please, verify this is what you really want

 
     Parallelization info
     --------------------
     sticks:   dense  smooth     PW     G-vecs:    dense   smooth      PW
     Min        2273    1136    284               399495   141218   17654
     Max        2274    1137    285               399500   141221   17656
     Sum       54553   27281   6817              9587919  3389267  423701
 
     Using Slab Decomposition
 

     negative rho (up, down):  1.256E-03 1.256E-03
     Reading collected, re-writing distributed wavefunctions

     Calculation of q =    0.0000000   0.0000000   0.0000000

     default                                                                    

     bravais-lattice index     =            0
     lattice parameter (alat)  =      37.7945  a.u.
     unit-cell volume          =   53986.6760 (a.u.)^3
     number of atoms/cell      =            2
     number of atomic types    =            2
     kinetic-energy cut-off    =      60.0000  Ry
     charge density cut-off    =     480.0000  Ry
     convergence threshold     =      1.0E-12
     beta                      =       0.7000
     number of iterations used =            4
     Exchange-correlation= PBE
                           (   1   4   3   4   0   0   0)


     celldm(1)=   37.79452  celldm(2)=    0.00000  celldm(3)=    0.00000
     celldm(4)=    0.00000  celldm(5)=    0.00000  celldm(6)=    0.00000

     crystal axes: (cart. coord. in units of alat)
               a(1) = (  1.0000  0.0000  0.0000 )  
               a(2) = (  0.0000  1.0000  0.0000 )  
               a(3) = (  0.0000  0.0000  1.0000 )  

     reciprocal axes: (cart. coord. in units 2 pi/alat)
               b(1) = (  1.0000  0.0000  0.0000 )  
               b(2) = (  0.0000  1.0000  0.0000 )  
               b(3) = (  0.0000  0.0000  1.0000 )  


     Atoms inside the unit cell: 

     Cartesian axes

     site n.  atom      mass           positions (alat units)
        1     O   15.9990   tau(    1) = (    0.50000    0.50000    0.52845  )
        2     C   12.0110   tau(    2) = (    0.50000    0.50000    0.47155  )

     Computing dynamical matrix for 
                    q = (   0.0000000   0.0000000   0.0000000 )
 
      2 Sym.Ops. (with q -> -q+G )


     G cutoff =17367.5767  ( 399497 G-vectors)     FFT grid: (270,270,270)
     G cutoff = 8683.7884  ( 141218 G-vectors)  smooth grid: (192,192,192)

     number of k points=     2  Gaussian smearing, width (Ry)=  0.0020
                       cart. coord. in units 2pi/alat
        k(    1) = (   0.0000000   0.0000000   0.0000000), wk =   1.0000000
        k(    2) = (   0.0000000   0.0000000   0.0000000), wk =   1.0000000

     PseudoPot. # 1 for C  read from file:
     /home/cjw/pseudopotential/SSSP_1.1.2_PBE_efficiency/C.pbe-n-kjpaw_psl.1.0.0.UPF
     MD5 check sum: 5d2aebdfa2cae82b50a7e79e9516da0f
     Pseudo is Projector augmented-wave + core cor, Zval =  4.0
     Generated using "atomic" code by A. Dal Corso  v.5.1
     Shape of augmentation charge: PSQ
     Using radial grid of 1073 points,  4 beta functions with: 
                l(1) =   0
                l(2) =   0
                l(3) =   1
                l(4) =   1
     Q(r) pseudized with 0 coefficients 


     PseudoPot. # 2 for O  read from file:
     /home/cjw/pseudopotential/SSSP_1.1.2_PBE_efficiency/O.pbe-n-kjpaw_psl.0.1.UPF
     MD5 check sum: 0234752ac141de4415c5fc33072bef88
     Pseudo is Projector augmented-wave + core cor, Zval =  6.0
     Generated using "atomic" code by A. Dal Corso  v.5.0.99 svn rev. 10869
     Shape of augmentation charge: BESSEL
     Using radial grid of 1095 points,  4 beta functions with: 
                l(1) =   0
                l(2) =   0
                l(3) =   1
                l(4) =   1
     Q(r) pseudized with 0 coefficients 


     Mode symmetry, C_1 (1)     point group:

     k=gamma and q=gamma tricks are used


     Atomic displacements:
     There are    6 irreducible representations

     Representation     1      1 modes -  To be done

     Representation     2      1 modes -  To be done

     Representation     3      1 modes -  To be done

     Representation     4      1 modes -  To be done

     Representation     5      1 modes -  To be done

     Representation     6      1 modes -  To be done



     Alpha used in Ewald sum =   2.8000

     negative rho (up, down):  1.256E-03 1.256E-03
     PHONON       :     59.82s CPU   1m 4.05s WALL



     Representation #   1 mode #   1

     Self-consistent Calculation
 
     Pert. #  1: Fermi energy shift (Ry) =     0.0000E+00     0.0000E+00

      iter #   1 total cpu time :    74.6 secs   av.it.:   7.5
      thresh= 1.000E-02 alpha_mix =  0.700 |ddv_scf|^2 =  2.046E-09
 
     Pert. #  1: Fermi energy shift (Ry) =     0.0000E+00     0.0000E+00

      iter #   2 total cpu time :    91.6 secs   av.it.:  14.5
      thresh= 4.523E-06 alpha_mix =  0.700 |ddv_scf|^2 =  2.091E-10
 
     Pert. #  1: Fermi energy shift (Ry) =     0.0000E+00     0.0000E+00

      iter #   3 total cpu time :   145.6 secs   av.it.:  14.0
      thresh= 1.446E-06 alpha_mix =  0.700 |ddv_scf|^2 =  1.457E-11
 
     Pert. #  1: Fermi energy shift (Ry) =     0.0000E+00     0.0000E+00

      iter #   4 total cpu time :   192.5 secs   av.it.:  15.0
      thresh= 3.817E-07 alpha_mix =  0.700 |ddv_scf|^2 =  1.548E-14

     End of self-consistent calculation

     Convergence has been achieved 


     Representation #   2 mode #   2

     Self-consistent Calculation
 
     Pert. #  1: Fermi energy shift (Ry) =     0.0000E+00     0.0000E+00

      iter #   1 total cpu time :   238.1 secs   av.it.:   7.5
      thresh= 1.000E-02 alpha_mix =  0.700 |ddv_scf|^2 =  2.046E-09
 
     Pert. #  1: Fermi energy shift (Ry) =     0.0000E+00     0.0000E+00

      iter #   2 total cpu time :   291.1 secs   av.it.:  14.5
      thresh= 4.523E-06 alpha_mix =  0.700 |ddv_scf|^2 =  2.091E-10
 
     Pert. #  1: Fermi energy shift (Ry) =     0.0000E+00     0.0000E+00

      iter #   3 total cpu time :   344.8 secs   av.it.:  14.0
      thresh= 1.446E-06 alpha_mix =  0.700 |ddv_scf|^2 =  1.457E-11
 
     Pert. #  1: Fermi energy shift (Ry) =     0.0000E+00     0.0000E+00

      iter #   4 total cpu time :   392.3 secs   av.it.:  15.0
      thresh= 3.817E-07 alpha_mix =  0.700 |ddv_scf|^2 =  1.548E-14

     End of self-consistent calculation

     Convergence has been achieved 


     Representation #   3 mode #   3

     Self-consistent Calculation
 
     Pert. #  1: Fermi energy shift (Ry) =     0.0000E+00     0.0000E+00

      iter #   1 total cpu time :   425.0 secs   av.it.:   8.0
      thresh= 1.000E-02 alpha_mix =  0.700 |ddv_scf|^2 =  2.561E-09
 
     Pert. #  1: Fermi energy shift (Ry) =     0.0000E+00     0.0000E+00

      iter #   2 total cpu time :   441.5 secs   av.it.:  15.0
      thresh= 5.060E-06 alpha_mix =  0.700 |ddv_scf|^2 =  1.934E-09
 
     Pert. #  1: Fermi energy shift (Ry) =     0.0000E+00     0.0000E+00

      iter #   3 total cpu time :   456.0 secs   av.it.:  15.0
      thresh= 4.397E-06 alpha_mix =  0.700 |ddv_scf|^2 =  2.151E-09
 
     Pert. #  1: Fermi energy shift (Ry) =     0.0000E+00     0.0000E+00

      iter #   4 total cpu time :   476.1 secs   av.it.:  14.0
      thresh= 4.637E-06 alpha_mix =  0.700 |ddv_scf|^2 =  4.835E-10
 
     Pert. #  1: Fermi energy shift (Ry) =     0.0000E+00     0.0000E+00

      iter #   5 total cpu time :   484.7 secs   av.it.:  15.0
      thresh= 2.199E-06 alpha_mix =  0.700 |ddv_scf|^2 =  5.841E-13

     End of self-consistent calculation

     Convergence has been achieved 


     Representation #   4 mode #   4

     Self-consistent Calculation
 
     Pert. #  1: Fermi energy shift (Ry) =     0.0000E+00     0.0000E+00

      iter #   1 total cpu time :   508.2 secs   av.it.:   6.0
      thresh= 1.000E-02 alpha_mix =  0.700 |ddv_scf|^2 =  6.395E-10
 
     Pert. #  1: Fermi energy shift (Ry) =     0.0000E+00     0.0000E+00

      iter #   2 total cpu time :   524.3 secs   av.it.:  14.0
      thresh= 2.529E-06 alpha_mix =  0.700 |ddv_scf|^2 =  6.414E-11
 
     Pert. #  1: Fermi energy shift (Ry) =     0.0000E+00     0.0000E+00

      iter #   3 total cpu time :   559.8 secs   av.it.:  15.0
      thresh= 8.009E-07 alpha_mix =  0.700 |ddv_scf|^2 =  5.228E-12
 
     Pert. #  1: Fermi energy shift (Ry) =     0.0000E+00     0.0000E+00

      iter #   4 total cpu time :   607.8 secs   av.it.:  15.0
      thresh= 2.286E-07 alpha_mix =  0.700 |ddv_scf|^2 =  1.604E-14

     End of self-consistent calculation

     Convergence has been achieved 


     Representation #   5 mode #   5

     Self-consistent Calculation
 
     Pert. #  1: Fermi energy shift (Ry) =     0.0000E+00     0.0000E+00

      iter #   1 total cpu time :   659.5 secs   av.it.:   6.0
      thresh= 1.000E-02 alpha_mix =  0.700 |ddv_scf|^2 =  6.396E-10
 
     Pert. #  1: Fermi energy shift (Ry) =     0.0000E+00     0.0000E+00

      iter #   2 total cpu time :   677.9 secs   av.it.:  14.0
      thresh= 2.529E-06 alpha_mix =  0.700 |ddv_scf|^2 =  6.415E-11
 
     Pert. #  1: Fermi energy shift (Ry) =     0.0000E+00     0.0000E+00

      iter #   3 total cpu time :   693.3 secs   av.it.:  15.0
      thresh= 8.009E-07 alpha_mix =  0.700 |ddv_scf|^2 =  5.228E-12
 
     Pert. #  1: Fermi energy shift (Ry) =     0.0000E+00     0.0000E+00

      iter #   4 total cpu time :   701.6 secs   av.it.:  15.0
      thresh= 2.286E-07 alpha_mix =  0.700 |ddv_scf|^2 =  1.604E-14

     End of self-consistent calculation

     Convergence has been achieved 


     Representation #   6 mode #   6

     Self-consistent Calculation
 
     Pert. #  1: Fermi energy shift (Ry) =     0.0000E+00     0.0000E+00

      iter #   1 total cpu time :   719.7 secs   av.it.:   7.0
      thresh= 1.000E-02 alpha_mix =  0.700 |ddv_scf|^2 =  7.059E-10
 
     Pert. #  1: Fermi energy shift (Ry) =     0.0000E+00     0.0000E+00

      iter #   2 total cpu time :   735.8 secs   av.it.:  15.0
      thresh= 2.657E-06 alpha_mix =  0.700 |ddv_scf|^2 =  1.314E-09
 
     Pert. #  1: Fermi energy shift (Ry) =     0.0000E+00     0.0000E+00

      iter #   3 total cpu time :   755.0 secs   av.it.:  15.0
      thresh= 3.625E-06 alpha_mix =  0.700 |ddv_scf|^2 =  2.895E-11
 
     Pert. #  1: Fermi energy shift (Ry) =     0.0000E+00     0.0000E+00

      iter #   4 total cpu time :   810.9 secs   av.it.:  16.0
      thresh= 5.381E-07 alpha_mix =  0.700 |ddv_scf|^2 =  6.403E-11
 
     Pert. #  1: Fermi energy shift (Ry) =     0.0000E+00     0.0000E+00

      iter #   5 total cpu time :   843.7 secs   av.it.:  15.0
      thresh= 8.002E-07 alpha_mix =  0.700 |ddv_scf|^2 =  5.202E-14

     End of self-consistent calculation

     Convergence has been achieved 
 
     Number of q in the star =    1
     List of q in the star:
          1   0.000000000   0.000000000   0.000000000

     Diagonalizing the dynamical matrix

     q = (    0.000000000   0.000000000   0.000000000 ) 

 **************************************************************************
     freq (    1) =      -8.025856 [THz] =    -267.713728 [cm-1]
     freq (    2) =      -8.025636 [THz] =    -267.706392 [cm-1]
     freq (    3) =      -5.163319 [THz] =    -172.229783 [cm-1]
     freq (    4) =       7.525152 [THz] =     251.012064 [cm-1]
     freq (    5) =       7.525357 [THz] =     251.018887 [cm-1]
     freq (    6) =      63.284110 [THz] =    2110.930690 [cm-1]
 **************************************************************************

     Mode symmetry, C_1 (1)     point group:

     freq (   1-   1) =       -267.7  [cm-1]   -->   ?
     freq (   2-   2) =       -267.7  [cm-1]   -->   ?
     freq (   3-   3) =       -172.2  [cm-1]   -->   ?
     freq (   4-   4) =        251.0  [cm-1]   -->   ?
     freq (   5-   5) =        251.0  [cm-1]   -->   ?
     freq (   6-   6) =       2110.9  [cm-1]   --> A               I+R
 
     PHONON       :  10m27.46s CPU  14m15.49s WALL

     INITIALIZATION: 
     phq_setup    :      4.03s CPU      5.07s WALL (       1 calls)
     phq_init     :     47.85s CPU     49.43s WALL (       1 calls)
 
     phq_init     :     47.85s CPU     49.43s WALL (       1 calls)
     set_drhoc    :     16.98s CPU     17.18s WALL (       3 calls)
     init_vloc    :      0.15s CPU      0.15s WALL (       1 calls)
     init_us_1    :      0.02s CPU      0.02s WALL (       1 calls)
     init_us_2    :      0.27s CPU      0.28s WALL (      94 calls)
     newd         :      0.47s CPU      0.87s WALL (       1 calls)
     dvanqq       :     15.93s CPU     16.20s WALL (       1 calls)
     drho         :      8.63s CPU      9.49s WALL (       1 calls)
 
     DYNAMICAL MATRIX:
     dynmat0      :     13.28s CPU     13.68s WALL (       1 calls)
     phqscf       :    567.52s CPU    787.12s WALL (       1 calls)
     dynmatrix    :      0.12s CPU      0.12s WALL (       1 calls)
 
     phqscf       :    567.52s CPU    787.12s WALL (       1 calls)
     solve_linter :    563.96s CPU    772.89s WALL (       6 calls)
     drhodv       :      3.12s CPU      3.31s WALL (       6 calls)
 
     dynmat0      :     13.28s CPU     13.68s WALL (       1 calls)
     dynmat_us    :      0.28s CPU      0.29s WALL (       1 calls)
     d2ionq       :      0.09s CPU      0.09s WALL (       1 calls)
     dynmatcc     :     12.63s CPU     13.01s WALL (       1 calls)
 
     dynmat_us    :      0.28s CPU      0.29s WALL (       1 calls)
     addusdynmat  :      0.00s CPU      0.00s WALL (       1 calls)
 
     phqscf       :    567.52s CPU    787.12s WALL (       1 calls)
     solve_linter :    563.96s CPU    772.89s WALL (       6 calls)
 
     solve_linter :    563.96s CPU    772.89s WALL (       6 calls)
     dvqpsi_us    :     10.08s CPU     10.73s WALL (      12 calls)
     sth_kernel   :    361.43s CPU    381.09s WALL (      26 calls)
     apply_dpot_b :     14.35s CPU     15.71s WALL (      40 calls)
     ortho        :      1.36s CPU      1.42s WALL (      52 calls)
     cgsolve      :    324.76s CPU    340.78s WALL (      52 calls)
     incdrhoscf   :     19.44s CPU     21.39s WALL (      52 calls)
     addusddens   :     38.33s CPU     41.54s WALL (      32 calls)
     dv_of_drho   :     42.39s CPU     51.11s WALL (      26 calls)
     mix_pot      :      3.77s CPU    116.19s WALL (      26 calls)
     ef_shift     :      5.08s CPU      5.78s WALL (      26 calls)
     ef_shift_wfc :      0.00s CPU      0.03s WALL (       6 calls)
     localdos     :     12.41s CPU     13.19s WALL (       6 calls)
     newdq        :     26.72s CPU     29.32s WALL (      26 calls)
     adddvscf     :      0.19s CPU      0.20s WALL (      40 calls)
     drhodvus     :      0.49s CPU      1.01s WALL (       6 calls)
 
     dvqpsi_us    :     10.08s CPU     10.73s WALL (      12 calls)
     dvqpsi_us_on :      0.06s CPU      0.06s WALL (      12 calls)
 
     cgsolve      :    324.76s CPU    340.78s WALL (      52 calls)
     ch_psi       :    296.21s CPU    310.45s WALL (     812 calls)
 
     ch_psi       :    296.21s CPU    310.45s WALL (     812 calls)
     h_psi        :    275.25s CPU    288.47s WALL (     812 calls)
     last         :     19.42s CPU     20.41s WALL (     812 calls)
 
     h_psi        :    275.25s CPU    288.47s WALL (     812 calls)
     add_vuspsi   :      0.88s CPU      0.90s WALL (     812 calls)
 
     incdrhoscf   :     19.44s CPU     21.39s WALL (      52 calls)
     addusdbec    :      0.71s CPU      0.76s WALL (      64 calls)
 
     drhodvus     :      0.49s CPU      1.01s WALL (       6 calls)
 
      General routines
     calbec       :     24.30s CPU     25.60s WALL (    1820 calls)
     fft          :     60.78s CPU     68.88s WALL (    1117 calls)
     ffts         :     11.92s CPU     12.51s WALL (     244 calls)
     fftw         :    294.33s CPU    310.46s WALL (    8226 calls)
     davcio       :      0.08s CPU      3.57s WALL (     472 calls)
     write_rec    :      1.63s CPU     67.23s WALL (      32 calls)
 
 
     PHONON       :  10m27.46s CPU  14m15.50s WALL

 
   This run was terminated on:   9:33:28  31May2023            

=------------------------------------------------------------------------------=
   JOB DONE.
=------------------------------------------------------------------------------=
