
     Program PWSCF v.7.1 starts on 31May2023 at  9:15:19 

     This program is part of the open-source Quantum ESPRESSO suite
     for quantum simulation of materials; please cite
         "P. Giannozzi et al., J. Phys.:Condens. Matter 21 395502 (2009);
         "P. Giannozzi et al., J. Phys.:Condens. Matter 29 465901 (2017);
         "P. Giannozzi et al., J. Chem. Phys. 152 154105 (2020);
          URL http://www.quantum-espresso.org", 
     in publications or presentations arising from this work. More details at
     http://www.quantum-espresso.org/quote

     Parallel version (MPI), running on    24 processors

     MPI processes distributed on     1 nodes
     165717 MiB available memory on the printing compute node when the environment starts
 
     Waiting for input...
     Reading input from standard input

     Current dimensions of program PWSCF are:
     Max number of different atomic species (ntypx) = 10
     Max number of k-points (npk) =  40000
     Max angular momentum in pseudopotentials (lmaxx) =  4
     file C.pbe-n-kjpaw_psl.1.0.0.UPF: wavefunction(s)  2S 2P renormalized
     file O.pbe-n-kjpaw_psl.0.1.UPF: wavefunction(s)  2P renormalized
 
     R & G space division:  proc/nbgrp/npool/nimage =      24
     Subspace diagonalization in iterative solution of the eigenvalue problem:
     a serial algorithm will be used

 
     Parallelization info
     --------------------
     sticks:   dense  smooth     PW     G-vecs:    dense   smooth      PW
     Min        2273    1136    284               399495   141218   17654
     Max        2274    1137    285               399500   141221   17656
     Sum       54553   27281   6817              9587919  3389267  423701
 
     Using Slab Decomposition
 


     bravais-lattice index     =            0
     lattice parameter (alat)  =      37.7945  a.u.
     unit-cell volume          =   53986.6760 (a.u.)^3
     number of atoms/cell      =            2
     number of atomic types    =            2
     number of electrons       =        10.00
     number of Kohn-Sham states=            9
     kinetic-energy cutoff     =      60.0000  Ry
     charge density cutoff     =     480.0000  Ry
     scf convergence threshold =      1.0E-06
     mixing beta               =       0.7000
     number of iterations used =            8  plain     mixing
     energy convergence thresh.=      1.0E-04
     force convergence thresh. =      1.0E-03
     Exchange-correlation= SLA  PW   PBX  PBC
                           (   1   4   3   4   0   0   0)
     nstep                     =           50


     celldm(1)=  37.794522  celldm(2)=   0.000000  celldm(3)=   0.000000
     celldm(4)=   0.000000  celldm(5)=   0.000000  celldm(6)=   0.000000

     crystal axes: (cart. coord. in units of alat)
               a(1) = (   1.000000   0.000000   0.000000 )  
               a(2) = (   0.000000   1.000000   0.000000 )  
               a(3) = (   0.000000   0.000000   1.000000 )  

     reciprocal axes: (cart. coord. in units 2 pi/alat)
               b(1) = (  1.000000  0.000000  0.000000 )  
               b(2) = (  0.000000  1.000000  0.000000 )  
               b(3) = (  0.000000  0.000000  1.000000 )  


     PseudoPot. # 1 for C  read from file:
     /home/cjw/pseudopotential/SSSP_1.1.2_PBE_efficiency/C.pbe-n-kjpaw_psl.1.0.0.UPF
     MD5 check sum: 5d2aebdfa2cae82b50a7e79e9516da0f
     Pseudo is Projector augmented-wave + core cor, Zval =  4.0
     Generated using "atomic" code by A. Dal Corso  v.5.1
     Shape of augmentation charge: PSQ
     Using radial grid of 1073 points,  4 beta functions with: 
                l(1) =   0
                l(2) =   0
                l(3) =   1
                l(4) =   1
     Q(r) pseudized with 0 coefficients 


     PseudoPot. # 2 for O  read from file:
     /home/cjw/pseudopotential/SSSP_1.1.2_PBE_efficiency/O.pbe-n-kjpaw_psl.0.1.UPF
     MD5 check sum: 0234752ac141de4415c5fc33072bef88
     Pseudo is Projector augmented-wave + core cor, Zval =  6.0
     Generated using "atomic" code by A. Dal Corso  v.5.0.99 svn rev. 10869
     Shape of augmentation charge: BESSEL
     Using radial grid of 1095 points,  4 beta functions with: 
                l(1) =   0
                l(2) =   0
                l(3) =   1
                l(4) =   1
     Q(r) pseudized with 0 coefficients 


     atomic species   valence    mass     pseudopotential
        C              4.00    12.01100     C ( 1.00)
        O              6.00    15.99900     O ( 1.00)

     Starting magnetic structure 
     atomic species   magnetization
        C            0.500
        O            0.500

     No symmetry found



   Cartesian axes

     site n.     atom                  positions (alat units)
         1           O   tau(   1) = (   0.5000000   0.5000000   0.5287585  )
         2           C   tau(   2) = (   0.5000000   0.5000000   0.4712415  )

     number of k points=     1  Gaussian smearing, width (Ry)=  0.0020
                       cart. coord. in units 2pi/alat
        k(    1) = (   0.0000000   0.0000000   0.0000000), wk =   1.0000000

     Dense  grid:  9587919 G-vectors     FFT dimensions: ( 270, 270, 270)

     Smooth grid:  3389267 G-vectors     FFT dimensions: ( 192, 192, 192)

     Estimated max dynamical RAM per process >     678.59 MB

     Estimated total dynamical RAM >      15.90 GB
     Generating pointlists ...
     new r_m :   0.0237 (alat units)  0.8967 (a.u.) for type    1
     new r_m :   0.0237 (alat units)  0.8967 (a.u.) for type    2

     Initial potential from superposition of free atoms

     starting charge      10.0000, renormalised to      10.0000

     negative rho (up, down):  1.198E-03 3.992E-04
     Starting wfcs are    8 randomized atomic wfcs +    1 random wfcs
     Checking if some PAW data can be deallocated... 

     total cpu time spent up to now is        9.4 secs

     Self-consistent Calculation

     iteration #  1     ecut=    60.00 Ry     beta= 0.70
     Davidson diagonalization with overlap
     ethr =  1.00E-02,  avg # of iterations =  7.5

     negative rho (up, down):  1.426E-03 9.964E-04

     total cpu time spent up to now is       15.2 secs

     total energy              =     -59.92464661 Ry
     estimated scf accuracy    <       0.35028777 Ry

     total magnetization       =     0.00 Bohr mag/cell
     absolute magnetization    =     0.45 Bohr mag/cell

     iteration #  2     ecut=    60.00 Ry     beta= 0.70
     Davidson diagonalization with overlap
     ethr =  3.50E-03,  avg # of iterations =  1.5

     negative rho (up, down):  1.389E-03 1.052E-03

     total cpu time spent up to now is       20.6 secs

     total energy              =     -59.91602548 Ry
     estimated scf accuracy    <       0.24682186 Ry

     total magnetization       =    -0.00 Bohr mag/cell
     absolute magnetization    =     0.23 Bohr mag/cell

     iteration #  3     ecut=    60.00 Ry     beta= 0.70
     Davidson diagonalization with overlap
     ethr =  2.47E-03,  avg # of iterations =  1.5

     negative rho (up, down):  1.441E-03 1.222E-03

     total cpu time spent up to now is       25.9 secs

     total energy              =     -59.99897510 Ry
     estimated scf accuracy    <       0.10406412 Ry

     total magnetization       =    -0.00 Bohr mag/cell
     absolute magnetization    =     0.16 Bohr mag/cell

     iteration #  4     ecut=    60.00 Ry     beta= 0.70
     Davidson diagonalization with overlap
     ethr =  1.04E-03,  avg # of iterations =  1.0

     negative rho (up, down):  1.336E-03 1.221E-03

     total cpu time spent up to now is       31.1 secs

     total energy              =     -60.01316428 Ry
     estimated scf accuracy    <       0.00198763 Ry

     total magnetization       =     0.00 Bohr mag/cell
     absolute magnetization    =     0.09 Bohr mag/cell

     iteration #  5     ecut=    60.00 Ry     beta= 0.70
     Davidson diagonalization with overlap
     c_bands:  1 eigenvalues not converged
     ethr =  1.99E-05,  avg # of iterations = 15.5

     negative rho (up, down):  1.266E-03 1.218E-03

     total cpu time spent up to now is       38.0 secs

     total energy              =     -60.01420875 Ry
     estimated scf accuracy    <       0.00025796 Ry

     total magnetization       =     0.00 Bohr mag/cell
     absolute magnetization    =     0.04 Bohr mag/cell

     iteration #  6     ecut=    60.00 Ry     beta= 0.70
     Davidson diagonalization with overlap
     ethr =  2.58E-06,  avg # of iterations = 11.0

     negative rho (up, down):  1.248E-03 1.227E-03

     total cpu time spent up to now is       44.2 secs

     total energy              =     -60.01427517 Ry
     estimated scf accuracy    <       0.00002242 Ry

     total magnetization       =     0.00 Bohr mag/cell
     absolute magnetization    =     0.02 Bohr mag/cell

     iteration #  7     ecut=    60.00 Ry     beta= 0.70
     Davidson diagonalization with overlap
     ethr =  2.24E-07,  avg # of iterations =  2.0

     negative rho (up, down):  1.241E-03 1.234E-03

     total cpu time spent up to now is       50.2 secs

     total energy              =     -60.01429289 Ry
     estimated scf accuracy    <       0.00000930 Ry

     total magnetization       =     0.00 Bohr mag/cell
     absolute magnetization    =     0.01 Bohr mag/cell

     iteration #  8     ecut=    60.00 Ry     beta= 0.70
     Davidson diagonalization with overlap
     ethr =  9.30E-08,  avg # of iterations =  1.5

     negative rho (up, down):  1.237E-03 1.236E-03
 
     Magnetic moment per site  (integrated on atomic sphere of radius R)
     atom   1 (R=0.024)  charge=  2.7319  magn=  0.0006
     atom   2 (R=0.024)  charge=  0.9373  magn= -0.0004

     total cpu time spent up to now is       55.2 secs

     End of self-consistent calculation

 ------ SPIN UP ------------


          k = 0.0000 0.0000 0.0000 (423701 PWs)   bands (ev):

   -29.0801 -14.1068 -11.6619 -11.6619  -9.0590  -2.2033  -2.2033  -0.2503
     0.0356

 ------ SPIN DOWN ----------


          k = 0.0000 0.0000 0.0000 (423701 PWs)   bands (ev):

   -29.0796 -14.1073 -11.6611 -11.6611  -9.0604  -2.2059  -2.2059  -0.2505
     0.0358

     the Fermi energy is    -7.1071 ev

!    total energy              =     -60.01429514 Ry
     total all-electron energy =      -226.625285 Ry
     estimated scf accuracy    <       0.00000021 Ry
     smearing contrib. (-TS)   =      -0.00000000 Ry
     internal energy E=F+TS    =     -60.01429514 Ry

     The total energy is F=E-TS. E is the sum of the following terms:
     one-electron contribution =     -97.02157175 Ry
     hartree contribution      =      49.79878436 Ry
     xc contribution           =     -11.64980203 Ry
     ewald contribution        =      14.58254538 Ry
     one-center paw contrib.   =     -15.72425110 Ry

     total magnetization       =    -0.00 Bohr mag/cell
     absolute magnetization    =     0.00 Bohr mag/cell

     convergence has been achieved in   8 iterations

     negative rho (up, down):  1.237E-03 1.236E-03

     Forces acting on atoms (cartesian axes, Ry/au):

     atom    1 type  2   force =    -0.00000474   -0.00000196   -0.05294311
     atom    2 type  1   force =     0.00000474    0.00000196    0.05294311

     Total force =     0.074873     Total SCF correction =     0.000325

     BFGS Geometry Optimization
     Energy error            =      0.0E+00 Ry
     Gradient error          =      5.3E-02 Ry/Bohr

     number of scf cycles    =   1
     number of bfgs steps    =   0

     energy             new  =     -60.0142951382 Ry

     new trust radius        =       0.0529431138 bohr
     new conv_thr            =       0.0000010000 Ry


ATOMIC_POSITIONS (angstrom)
O             9.9999974910        9.9999989611       10.5471537108
C            10.0000025090       10.0000010389        9.4528462892



     Writing config-only to output data dir ./pwscf.save/
     NEW-OLD atomic charge density approx. for the potential

     negative rho (up, down):  1.161E-03 1.161E-03
     Generating pointlists ...
     new r_m :   0.0226 (alat units)  0.8530 (a.u.) for type    1
     new r_m :   0.0226 (alat units)  0.8530 (a.u.) for type    2

     total cpu time spent up to now is       64.3 secs

     Self-consistent Calculation

     iteration #  1     ecut=    60.00 Ry     beta= 0.70
     Davidson diagonalization with overlap
     ethr =  1.00E-06,  avg # of iterations =  6.0

     negative rho (up, down):  1.269E-03 1.269E-03

     total cpu time spent up to now is       70.5 secs

     total energy              =     -60.00432239 Ry
     estimated scf accuracy    <       0.00583740 Ry

     total magnetization       =    -0.00 Bohr mag/cell
     absolute magnetization    =     0.00 Bohr mag/cell

     iteration #  2     ecut=    60.00 Ry     beta= 0.70
     Davidson diagonalization with overlap
     ethr =  5.84E-05,  avg # of iterations =  2.0

     negative rho (up, down):  1.312E-03 1.311E-03

     total cpu time spent up to now is       76.5 secs

     total energy              =     -60.00547887 Ry
     estimated scf accuracy    <       0.00155413 Ry

     total magnetization       =     0.00 Bohr mag/cell
     absolute magnetization    =     0.00 Bohr mag/cell

     iteration #  3     ecut=    60.00 Ry     beta= 0.70
     Davidson diagonalization with overlap
     ethr =  1.55E-05,  avg # of iterations =  2.0

     negative rho (up, down):  1.307E-03 1.307E-03

     total cpu time spent up to now is       82.2 secs

     total energy              =     -60.00582381 Ry
     estimated scf accuracy    <       0.00083734 Ry

     total magnetization       =    -0.00 Bohr mag/cell
     absolute magnetization    =     0.00 Bohr mag/cell

     iteration #  4     ecut=    60.00 Ry     beta= 0.70
     Davidson diagonalization with overlap
     ethr =  8.37E-06,  avg # of iterations =  1.0

     negative rho (up, down):  1.314E-03 1.314E-03

     total cpu time spent up to now is       87.4 secs

     total energy              =     -60.00598312 Ry
     estimated scf accuracy    <       0.00000529 Ry

     total magnetization       =     0.00 Bohr mag/cell
     absolute magnetization    =     0.00 Bohr mag/cell

     iteration #  5     ecut=    60.00 Ry     beta= 0.70
     Davidson diagonalization with overlap
     ethr =  5.29E-08,  avg # of iterations =  2.0

     negative rho (up, down):  1.317E-03 1.317E-03
 
     Magnetic moment per site  (integrated on atomic sphere of radius R)
     atom   1 (R=0.023)  charge=  2.5188  magn=  0.0000
     atom   2 (R=0.023)  charge=  0.8586  magn= -0.0000

     total cpu time spent up to now is       93.1 secs

     End of self-consistent calculation

 ------ SPIN UP ------------


          k = 0.0000 0.0000 0.0000 (423701 PWs)   bands (ev):

   -29.8985 -14.0778 -12.1631 -12.1631  -8.9251  -1.6570  -1.6570  -0.2494
     0.0373

 ------ SPIN DOWN ----------


          k = 0.0000 0.0000 0.0000 (423701 PWs)   bands (ev):

   -29.8984 -14.0777 -12.1630 -12.1630  -8.9252  -1.6571  -1.6571  -0.2495
     0.0374

     the Fermi energy is    -7.3105 ev

!    total energy              =     -60.00598594 Ry
     total all-electron energy =      -226.616976 Ry
     estimated scf accuracy    <       0.00000075 Ry
     smearing contrib. (-TS)   =      -0.00000000 Ry
     internal energy E=F+TS    =     -60.00598594 Ry

     The total energy is F=E-TS. E is the sum of the following terms:
     one-electron contribution =     -98.93427587 Ry
     hartree contribution      =      50.70341014 Ry
     xc contribution           =     -11.76463519 Ry
     ewald contribution        =      15.71232312 Ry
     one-center paw contrib.   =     -15.72280814 Ry

     total magnetization       =    -0.00 Bohr mag/cell
     absolute magnetization    =     0.00 Bohr mag/cell

     convergence has been achieved in   5 iterations

     negative rho (up, down):  1.317E-03 1.317E-03

     Forces acting on atoms (cartesian axes, Ry/au):

     atom    1 type  2   force =    -0.00000127   -0.00000038    0.22916295
     atom    2 type  1   force =     0.00000127    0.00000038   -0.22916295

     Total force =     0.324085     Total SCF correction =     0.001210
     Energy error            =      8.3E-03 Ry
     Gradient error          =      2.3E-01 Ry/Bohr

     number of scf cycles    =   2
     number of bfgs steps    =   1

     energy             old  =     -60.0142951382 Ry
     energy             new  =     -60.0059859389 Ry

     CASE: energy            _new > energy            _old

     new trust radius        =       0.0106645044 bohr
     new conv_thr            =       0.0000010000 Ry


ATOMIC_POSITIONS (angstrom)
O             9.9999994946        9.9999997907       10.5695265873
C            10.0000005054       10.0000002093        9.4304734127



     Writing config-only to output data dir ./pwscf.save/
     NEW-OLD atomic charge density approx. for the potential

     negative rho (up, down):  1.274E-03 1.274E-03
     Generating pointlists ...

     total cpu time spent up to now is      101.4 secs

     Self-consistent Calculation

     iteration #  1     ecut=    60.00 Ry     beta= 0.70
     Davidson diagonalization with overlap
     ethr =  1.00E-06,  avg # of iterations =  6.0

     negative rho (up, down):  1.250E-03 1.250E-03

     total cpu time spent up to now is      108.2 secs

     total energy              =     -60.01377044 Ry
     estimated scf accuracy    <       0.00386470 Ry

     total magnetization       =    -0.00 Bohr mag/cell
     absolute magnetization    =     0.00 Bohr mag/cell

     iteration #  2     ecut=    60.00 Ry     beta= 0.70
     Davidson diagonalization with overlap
     ethr =  3.86E-05,  avg # of iterations =  2.0

     negative rho (up, down):  1.244E-03 1.244E-03

     total cpu time spent up to now is      113.6 secs

     total energy              =     -60.01427920 Ry
     estimated scf accuracy    <       0.00197822 Ry

     total magnetization       =    -0.00 Bohr mag/cell
     absolute magnetization    =     0.00 Bohr mag/cell

     iteration #  3     ecut=    60.00 Ry     beta= 0.70
     Davidson diagonalization with overlap
     ethr =  1.98E-05,  avg # of iterations =  2.0

     negative rho (up, down):  1.263E-03 1.263E-03

     total cpu time spent up to now is      118.9 secs

     total energy              =     -60.01475759 Ry
     estimated scf accuracy    <       0.00088790 Ry

     total magnetization       =    -0.00 Bohr mag/cell
     absolute magnetization    =     0.00 Bohr mag/cell

     iteration #  4     ecut=    60.00 Ry     beta= 0.70
     Davidson diagonalization with overlap
     ethr =  8.88E-06,  avg # of iterations =  1.0

     negative rho (up, down):  1.255E-03 1.255E-03

     total cpu time spent up to now is      124.8 secs

     total energy              =     -60.01491873 Ry
     estimated scf accuracy    <       0.00000362 Ry

     total magnetization       =     0.00 Bohr mag/cell
     absolute magnetization    =     0.00 Bohr mag/cell

     iteration #  5     ecut=    60.00 Ry     beta= 0.70
     Davidson diagonalization with overlap
     ethr =  3.62E-08,  avg # of iterations =  3.0

     negative rho (up, down):  1.254E-03 1.254E-03

     total cpu time spent up to now is      130.3 secs

     total energy              =     -60.01492158 Ry
     estimated scf accuracy    <       0.00000130 Ry

     total magnetization       =     0.00 Bohr mag/cell
     absolute magnetization    =     0.00 Bohr mag/cell

     iteration #  6     ecut=    60.00 Ry     beta= 0.70
     Davidson diagonalization with overlap
     ethr =  1.30E-08,  avg # of iterations =  1.0

     negative rho (up, down):  1.254E-03 1.254E-03
 
     Magnetic moment per site  (integrated on atomic sphere of radius R)
     atom   1 (R=0.023)  charge=  2.4861  magn=  0.0000
     atom   2 (R=0.023)  charge=  0.8225  magn= -0.0000

     total cpu time spent up to now is      136.0 secs

     End of self-consistent calculation

 ------ SPIN UP ------------


          k = 0.0000 0.0000 0.0000 (423701 PWs)   bands (ev):

   -29.2396 -14.0986 -11.7566 -11.7566  -9.0331  -2.0966  -2.0966  -0.2503
     0.0361

 ------ SPIN DOWN ----------


          k = 0.0000 0.0000 0.0000 (423701 PWs)   bands (ev):

   -29.2395 -14.0986 -11.7566 -11.7566  -9.0331  -2.0966  -2.0966  -0.2504
     0.0359

     the Fermi energy is    -7.1468 ev

!    total energy              =     -60.01492158 Ry
     total all-electron energy =      -226.625912 Ry
     estimated scf accuracy    <       0.00000014 Ry
     smearing contrib. (-TS)   =      -0.00000000 Ry
     internal energy E=F+TS    =     -60.01492158 Ry

     The total energy is F=E-TS. E is the sum of the following terms:
     one-electron contribution =     -97.39351981 Ry
     hartree contribution      =      49.97262794 Ry
     xc contribution           =     -11.67134101 Ry
     ewald contribution        =      14.80117018 Ry
     one-center paw contrib.   =     -15.72385888 Ry

     total magnetization       =     0.00 Bohr mag/cell
     absolute magnetization    =     0.00 Bohr mag/cell

     convergence has been achieved in   6 iterations

     negative rho (up, down):  1.254E-03 1.254E-03

     Forces acting on atoms (cartesian axes, Ry/au):

     atom    1 type  2   force =    -0.00000063    0.00000049   -0.00509159
     atom    2 type  1   force =     0.00000063   -0.00000049    0.00509159

     Total force =     0.007201     Total SCF correction =     0.000482
     Energy error            =      6.3E-04 Ry
     Gradient error          =      5.1E-03 Ry/Bohr

     number of scf cycles    =   3
     number of bfgs steps    =   1

     energy             old  =     -60.0142951382 Ry
     energy             new  =     -60.0149215773 Ry

     CASE: energy            _new < energy            _old

     new trust radius        =       0.0011347447 bohr
     new conv_thr            =       0.0000000509 Ry


ATOMIC_POSITIONS (angstrom)
O             9.9999993398       10.0000001639       10.5689261064
C            10.0000006602        9.9999998361        9.4310738936



     Writing config-only to output data dir ./pwscf.save/
     NEW-OLD atomic charge density approx. for the potential

     negative rho (up, down):  1.254E-03 1.254E-03
     Generating pointlists ...

     total cpu time spent up to now is      144.6 secs

     Self-consistent Calculation

     iteration #  1     ecut=    60.00 Ry     beta= 0.70
     Davidson diagonalization with overlap
     ethr =  1.00E-06,  avg # of iterations =  2.0

     Threshold (ethr) on eigenvalues was too large:
     Diagonalizing with lowered threshold

     Davidson diagonalization with overlap
     ethr =  2.45E-08,  avg # of iterations =  1.0

     negative rho (up, down):  1.256E-03 1.256E-03

     total cpu time spent up to now is      153.0 secs

     total energy              =     -60.01492637 Ry
     estimated scf accuracy    <       0.00000262 Ry

     total magnetization       =    -0.00 Bohr mag/cell
     absolute magnetization    =     0.00 Bohr mag/cell

     iteration #  2     ecut=    60.00 Ry     beta= 0.70
     Davidson diagonalization with overlap
     ethr =  2.62E-08,  avg # of iterations =  2.0

     negative rho (up, down):  1.255E-03 1.255E-03

     total cpu time spent up to now is      158.4 secs

     total energy              =     -60.01492681 Ry
     estimated scf accuracy    <       0.00000077 Ry

     total magnetization       =     0.00 Bohr mag/cell
     absolute magnetization    =     0.00 Bohr mag/cell

     iteration #  3     ecut=    60.00 Ry     beta= 0.70
     Davidson diagonalization with overlap
     ethr =  7.67E-09,  avg # of iterations =  2.0

     negative rho (up, down):  1.256E-03 1.256E-03

     total cpu time spent up to now is      163.8 secs

     total energy              =     -60.01492700 Ry
     estimated scf accuracy    <       0.00000058 Ry

     total magnetization       =    -0.00 Bohr mag/cell
     absolute magnetization    =     0.00 Bohr mag/cell

     iteration #  4     ecut=    60.00 Ry     beta= 0.70
     Davidson diagonalization with overlap
     ethr =  5.83E-09,  avg # of iterations =  1.0

     negative rho (up, down):  1.256E-03 1.256E-03
 
     Magnetic moment per site  (integrated on atomic sphere of radius R)
     atom   1 (R=0.023)  charge=  2.4871  magn=  0.0000
     atom   2 (R=0.023)  charge=  0.8234  magn= -0.0000

     total cpu time spent up to now is      168.7 secs

     End of self-consistent calculation

 ------ SPIN UP ------------


          k = 0.0000 0.0000 0.0000 (423701 PWs)   bands (ev):

   -29.2583 -14.0989 -11.7680 -11.7680  -9.0305  -2.0855  -2.0855  -0.2503
     0.0360

 ------ SPIN DOWN ----------


          k = 0.0000 0.0000 0.0000 (423701 PWs)   bands (ev):

   -29.2583 -14.0989 -11.7680 -11.7680  -9.0305  -2.0855  -2.0855  -0.2504
     0.0359

     the Fermi energy is    -7.1515 ev

!    total energy              =     -60.01492709 Ry
     total all-electron energy =      -226.625917 Ry
     estimated scf accuracy    <          2.4E-09 Ry
     smearing contrib. (-TS)   =      -0.00000000 Ry
     internal energy E=F+TS    =     -60.01492709 Ry

     The total energy is F=E-TS. E is the sum of the following terms:
     one-electron contribution =     -97.43479504 Ry
     hartree contribution      =      49.99292844 Ry
     xc contribution           =     -11.67393302 Ry
     ewald contribution        =      14.82468831 Ry
     one-center paw contrib.   =     -15.72381577 Ry

     total magnetization       =    -0.00 Bohr mag/cell
     absolute magnetization    =     0.00 Bohr mag/cell

     convergence has been achieved in   4 iterations

     negative rho (up, down):  1.256E-03 1.256E-03

     Forces acting on atoms (cartesian axes, Ry/au):

     atom    1 type  2   force =     0.00000005   -0.00000002    0.00029904
     atom    2 type  1   force =    -0.00000005    0.00000002   -0.00029904

     Total force =     0.000423     Total SCF correction =     0.000050
     SCF correction compared to forces is large: reduce conv_thr to get better values
     Energy error            =      5.5E-06 Ry
     Gradient error          =      3.0E-04 Ry/Bohr
Begin final coordinates

ATOMIC_POSITIONS (angstrom)
O             9.9999993398       10.0000001639       10.5689261064
C            10.0000006602        9.9999998361        9.4310738936
End final coordinates



     Writing config-only to output data dir ./pwscf.save/

     lsda relaxation :  a final configuration with zero
                        absolute magnetization has been found

     the program is checking if it is really the minimum energy structure
     by performing a new scf iteration without any "electronic" history

     Initial potential from superposition of free atoms

     starting charge      10.0000, renormalised to      10.0000

     negative rho (up, down):  1.202E-03 4.008E-04

     total cpu time spent up to now is      175.6 secs

     Self-consistent Calculation

     iteration #  1     ecut=    60.00 Ry     beta= 0.70
     Davidson diagonalization with overlap
     ethr =  1.00E-06,  avg # of iterations =  9.0

     negative rho (up, down):  1.439E-03 1.021E-03

     total cpu time spent up to now is      182.2 secs

     total energy              =     -59.92635411 Ry
     estimated scf accuracy    <       0.35633353 Ry

     total magnetization       =    -0.00 Bohr mag/cell
     absolute magnetization    =     0.44 Bohr mag/cell

     iteration #  2     ecut=    60.00 Ry     beta= 0.70
     Davidson diagonalization with overlap
     ethr =  3.56E-03,  avg # of iterations =  1.5

     negative rho (up, down):  1.342E-03 1.049E-03

     total cpu time spent up to now is      187.5 secs

     total energy              =     -59.93435272 Ry
     estimated scf accuracy    <       0.18734640 Ry

     total magnetization       =    -0.00 Bohr mag/cell
     absolute magnetization    =     0.22 Bohr mag/cell

     iteration #  3     ecut=    60.00 Ry     beta= 0.70
     Davidson diagonalization with overlap
     ethr =  1.87E-03,  avg # of iterations =  2.0

     negative rho (up, down):  1.434E-03 1.271E-03

     total cpu time spent up to now is      192.8 secs

     total energy              =     -59.99806518 Ry
     estimated scf accuracy    <       0.11076347 Ry

     total magnetization       =    -0.00 Bohr mag/cell
     absolute magnetization    =     0.15 Bohr mag/cell

     iteration #  4     ecut=    60.00 Ry     beta= 0.70
     Davidson diagonalization with overlap
     ethr =  1.11E-03,  avg # of iterations =  1.0

     negative rho (up, down):  1.331E-03 1.243E-03

     total cpu time spent up to now is      198.0 secs

     total energy              =     -60.01424790 Ry
     estimated scf accuracy    <       0.00126149 Ry

     total magnetization       =    -0.00 Bohr mag/cell
     absolute magnetization    =     0.08 Bohr mag/cell

     iteration #  5     ecut=    60.00 Ry     beta= 0.70
     Davidson diagonalization with overlap
     ethr =  1.26E-05,  avg # of iterations =  4.5

     negative rho (up, down):  1.281E-03 1.241E-03

     total cpu time spent up to now is      203.6 secs

     total energy              =     -60.01485959 Ry
     estimated scf accuracy    <       0.00013497 Ry

     total magnetization       =    -0.00 Bohr mag/cell
     absolute magnetization    =     0.04 Bohr mag/cell

     iteration #  6     ecut=    60.00 Ry     beta= 0.70
     Davidson diagonalization with overlap
     ethr =  1.35E-06,  avg # of iterations =  3.0

     negative rho (up, down):  1.266E-03 1.249E-03

     total cpu time spent up to now is      209.1 secs

     total energy              =     -60.01491554 Ry
     estimated scf accuracy    <       0.00000770 Ry

     total magnetization       =    -0.00 Bohr mag/cell
     absolute magnetization    =     0.02 Bohr mag/cell

     iteration #  7     ecut=    60.00 Ry     beta= 0.70
     Davidson diagonalization with overlap
     ethr =  7.70E-08,  avg # of iterations =  2.0

     negative rho (up, down):  1.260E-03 1.253E-03

     total cpu time spent up to now is      214.5 secs

     total energy              =     -60.01492633 Ry
     estimated scf accuracy    <       0.00000062 Ry

     total magnetization       =     0.00 Bohr mag/cell
     absolute magnetization    =     0.00 Bohr mag/cell

     iteration #  8     ecut=    60.00 Ry     beta= 0.70
     Davidson diagonalization with overlap
     ethr =  6.17E-09,  avg # of iterations =  2.0

     negative rho (up, down):  1.257E-03 1.255E-03

     total cpu time spent up to now is      219.9 secs

     total energy              =     -60.01492679 Ry
     estimated scf accuracy    <       0.00000008 Ry

     total magnetization       =    -0.00 Bohr mag/cell
     absolute magnetization    =     0.00 Bohr mag/cell

     iteration #  9     ecut=    60.00 Ry     beta= 0.70
     Davidson diagonalization with overlap
     ethr =  8.17E-10,  avg # of iterations =  2.5

     negative rho (up, down):  1.256E-03 1.256E-03
 
     Magnetic moment per site  (integrated on atomic sphere of radius R)
     atom   1 (R=0.023)  charge=  2.4871  magn=  0.0000
     atom   2 (R=0.023)  charge=  0.8234  magn= -0.0000

     total cpu time spent up to now is      225.0 secs

     End of self-consistent calculation

 ------ SPIN UP ------------


          k = 0.0000 0.0000 0.0000 (423701 PWs)   bands (ev):

   -29.2586 -14.0992 -11.7684 -11.7684  -9.0308  -2.0856  -2.0856  -0.2504
     0.0358

 ------ SPIN DOWN ----------


          k = 0.0000 0.0000 0.0000 (423701 PWs)   bands (ev):

   -29.2585 -14.0992 -11.7683 -11.7683  -9.0307  -2.0858  -2.0858  -0.2504
     0.0359

     the Fermi energy is    -7.1517 ev

!    total energy              =     -60.01492709 Ry
     total all-electron energy =      -226.625917 Ry
     estimated scf accuracy    <          3.4E-09 Ry
     smearing contrib. (-TS)   =      -0.00000000 Ry
     internal energy E=F+TS    =     -60.01492709 Ry

     The total energy is F=E-TS. E is the sum of the following terms:
     one-electron contribution =     -97.43480662 Ry
     hartree contribution      =      49.99294475 Ry
     xc contribution           =     -11.67393792 Ry
     ewald contribution        =      14.82468831 Ry
     one-center paw contrib.   =     -15.72381561 Ry

     total magnetization       =     0.00 Bohr mag/cell
     absolute magnetization    =     0.00 Bohr mag/cell

     convergence has been achieved in   9 iterations

     negative rho (up, down):  1.256E-03 1.256E-03

     Forces acting on atoms (cartesian axes, Ry/au):

     atom    1 type  2   force =     0.00000183    0.00000453    0.00028113
     atom    2 type  1   force =    -0.00000183   -0.00000453   -0.00028113

     Total force =     0.000398     Total SCF correction =     0.000082
     SCF correction compared to forces is large: reduce conv_thr to get better values
     Energy error            =      5.5E-06 Ry
     Gradient error          =      2.8E-04 Ry/Bohr

     bfgs converged in   4 scf cycles and   2 bfgs steps
     (criteria: energy <  1.0E-04 Ry, force <  1.0E-03 Ry/Bohr)

     End of BFGS Geometry Optimization

     Final energy             =     -60.0149270866 Ry

     File ./pwscf.bfgs deleted, as requested
Begin final coordinates

ATOMIC_POSITIONS (angstrom)
O             9.9999993398       10.0000001639       10.5689261064
C            10.0000006602        9.9999998361        9.4310738936
End final coordinates



     Writing all to output data dir ./pwscf.save/
 
     init_run     :      7.88s CPU      8.94s WALL (       1 calls)
     electrons    :    154.96s CPU    190.31s WALL (       5 calls)
     update_pot   :      7.66s CPU      8.23s WALL (       3 calls)
     forces       :     13.07s CPU     15.84s WALL (       5 calls)

     Called by init_run:
     wfcinit      :      0.24s CPU      0.26s WALL (       1 calls)
     potinit      :      3.05s CPU      3.68s WALL (       2 calls)
     hinit0       :      0.66s CPU      0.74s WALL (       1 calls)

     Called by electrons:
     c_bands      :     26.71s CPU     28.26s WALL (      33 calls)
     sum_band     :     58.02s CPU     69.37s WALL (      33 calls)
     v_of_rho     :     42.78s CPU     49.54s WALL (      37 calls)
     newd         :     20.06s CPU     31.63s WALL (      37 calls)
     PAW_pot      :      0.68s CPU      0.70s WALL (      40 calls)
     mix_rho      :      7.95s CPU      8.78s WALL (      33 calls)

     Called by c_bands:
     init_us_2    :      0.42s CPU      0.44s WALL (     150 calls)
     init_us_2:cp :      0.42s CPU      0.44s WALL (     150 calls)
     cegterg      :     24.40s CPU     25.89s WALL (      66 calls)

     Called by *egterg:
     cdiaghg      :      0.06s CPU      0.06s WALL (     266 calls)
     h_psi        :     20.90s CPU     22.33s WALL (     278 calls)
     s_psi        :      0.34s CPU      0.35s WALL (     278 calls)
     g_psi        :      0.08s CPU      0.08s WALL (     210 calls)

     Called by h_psi:
     h_psi:calbec :      0.43s CPU      0.43s WALL (     278 calls)
     vloc_psi     :     19.94s CPU     21.34s WALL (     278 calls)
     add_vuspsi   :      0.36s CPU      0.37s WALL (     278 calls)

     General routines
     calbec       :      0.63s CPU      0.63s WALL (     390 calls)
     fft          :     40.50s CPU     45.67s WALL (     993 calls)
     ffts         :      1.43s CPU      1.68s WALL (     140 calls)
     fftw         :     18.23s CPU     19.74s WALL (    4056 calls)
     interpolate  :      3.73s CPU      4.22s WALL (      74 calls)
 
     Parallel routines
 
     PWSCF        :   3m 8.76s CPU   3m52.13s WALL

 
   This run was terminated on:   9:19:12  31May2023            

=------------------------------------------------------------------------------=
   JOB DONE.
=------------------------------------------------------------------------------=
